/*--------------------------------*- C++ -*----------------------------------*\
| =========                 |                                                 |
| \\      /  F ield         | foam-extend: Open Source CFD                    |
|  \\    /   O peration     | Version:     4.1                                |
|   \\  /    A nd           | Web:         http://www.foam-extend.org         |
|    \\/     M anipulation  |                                                 |
\*---------------------------------------------------------------------------*/
FoamFile
{
    version     2.0;
    format      ascii;
    class       volScalarField;
    object      p;
}

// * * * * * * * * * * * * * * * * * * * * * * * * * * * * * * * * * * * * * //


dimensions [0 2 -2 0 0 0 0];

internalField uniform 0;

boundaryField
{
    oversetFaces
    {
        type overset;
        value uniform 0;
        coupledFringe yes;
        conservativeCorrection yes;
        setHoleCellValue  yes;
        holeCellValue     0;
    }
    left
    {
        type zeroGradient;
    }
    leftEnd
    {
        type emptyOverset;
        value uniform 0;
    }
    rightStart
    {
        type emptyOverset;
        value uniform 0;
    }
    right
    {
        type fixedValue;
        value uniform 0;
    }
    top
    {
        type zeroGradient;
    }
    bottom
    {
        type zeroGradient;
    }
    frontAndBack
    {
        type empty;
    }
}


// ************************************************************************* //
