/*--------------------------------*- C++ -*----------------------------------*\
| =========                 |                                                 |
| \\      /  F ield         | OpenFOAM Extend Project: Open Source CFD        |
|  \\    /   O peration     | Version:  1.6-ext                               |
|   \\  /    A nd           | Web:      www.extend-project.de                 |
|    \\/     M anipulation  |                                                 |
\*---------------------------------------------------------------------------*/
FoamFile
{
    version     2.0;
    format      ascii;
    class       volScalarField;
    location    "0";
    object      Cvf;
}
// * * * * * * * * * * * * * * * * * * * * * * * * * * * * * * * * * * * * * //

dimensions      [0 -1 0 0 0 0 0];

internalField   uniform 0;

boundaryField
{
    outer
    {
        type            calculated;
        value           nonuniform List<scalar>
600
(
0.348943
0.476101
0.616384
0.766135
0.921548
0.356306
0.481012
0.619778
0.768336
0.922379
0.377139
0.496138
0.630511
0.775003
0.924894
0.405258
0.516249
0.643909
0.783663
0.928214
0.435004
0.532596
0.653511
0.789268
0.93059
0.930107
0.927725
0.924605
0.922458
0.921832
0.789466
0.783664
0.774232
0.76854
0.766506
0.653551
0.643067
0.629552
0.62035
0.617113
0.531965
0.515366
0.49608
0.48233
0.477801
0.434902
0.406247
0.379363
0.35886
0.350129
0.240238
0.148513
0.0780792
0.030225
0.00605315
0.252478
0.164769
0.0975922
0.0526838
0.0302134
0.279804
0.19911
0.137985
0.0977651
0.0779713
0.319125
0.250333
0.198837
0.164283
0.148215
0.36463
0.317854
0.278039
0.250799
0.239222
1.07005
1.07279
1.07582
1.07812
1.07863
1.21168
1.2186
1.22764
1.23355
1.23457
1.34774
1.35941
1.37293
1.38254
1.38436
1.46873
1.48683
1.50668
1.52025
1.52426
1.5658
1.59657
1.62468
1.64451
1.65126
1.76106
1.85216
1.92235
1.9699
1.99394
1.7502
1.83695
1.90304
1.94725
1.96964
1.72349
1.80264
1.86229
1.9015
1.92154
1.68321
1.75047
1.80008
1.83387
1.85086
1.63568
1.68045
1.71871
1.74615
1.75949
1.64961
1.52189
1.38227
1.23306
1.07801
1.64011
1.51615
1.37793
1.22974
1.07677
1.61876
1.50111
1.36751
1.22355
1.07442
1.59195
1.48204
1.35473
1.21478
1.07134
1.56431
1.46714
1.34611
1.21019
1.06941
1.75792
1.84994
1.92096
1.9693
1.99382
1.74018
1.82936
1.89804
1.94486
1.96904
1.70651
1.78937
1.85302
1.89669
1.92019
1.65989
1.73124
1.78652
1.82621
1.84851
1.60748
1.65628
1.70051
1.73459
1.75556
1.6449
1.51846
1.37935
1.23125
1.07753
1.62661
1.50373
1.36831
1.22441
1.07515
1.59818
1.48132
1.35211
1.21446
1.07137
1.5653
1.45724
1.33671
1.20522
1.06817
1.53456
1.44078
1.32735
1.19987
1.06612
1.06583
1.06858
1.07294
1.07609
1.07779
1.19924
1.20597
1.21788
1.22709
1.23219
1.32847
1.3406
1.358
1.37281
1.38104
1.44285
1.46332
1.4886
1.50963
1.52006
1.53679
1.5703
1.60536
1.63312
1.64757
0.350388
0.478114
0.617731
0.766941
0.92199
0.359881
0.483846
0.622067
0.770262
0.923231
0.38123
0.49888
0.632488
0.776446
0.925576
0.40804
0.517956
0.645263
0.785224
0.928656
0.435681
0.532851
0.653885
0.789807
0.930589
0.929952
0.927211
0.924181
0.921882
0.921369
0.788324
0.781403
0.772359
0.766454
0.765429
0.652252
0.640585
0.627072
0.617462
0.615643
0.531262
0.513157
0.493317
0.479747
0.475743
0.434186
0.403424
0.375315
0.355488
0.348736
0.238945
0.147843
0.0776541
0.0301033
0.00605517
0.249794
0.163051
0.0969598
0.0527514
0.0303636
0.276507
0.197359
0.13771
0.0984969
0.0784608
0.316785
0.249528
0.199922
0.166131
0.149143
0.364309
0.31954
0.281289
0.253852
0.240507
1.76106
1.85216
1.92235
1.9699
1.99394
1.75021
1.83696
1.90304
1.94725
1.96964
1.7235
1.80265
1.86229
1.9015
1.92154
1.68321
1.75048
1.80008
1.83387
1.85086
1.63569
1.68046
1.71871
1.74615
1.75949
1.64961
1.52189
1.38227
1.23306
1.07801
1.64011
1.51615
1.37793
1.22974
1.07677
1.61876
1.50111
1.36751
1.22355
1.07442
1.59196
1.48204
1.35473
1.21478
1.07134
1.56432
1.46715
1.34611
1.21019
1.06941
1.07005
1.07279
1.07582
1.07812
1.07863
1.21168
1.2186
1.22764
1.23355
1.23457
1.34775
1.35942
1.37293
1.38254
1.38436
1.46874
1.48684
1.50668
1.52025
1.52426
1.56581
1.59657
1.62468
1.64451
1.65126
0.930107
0.927725
0.924606
0.922458
0.921832
0.789466
0.783664
0.774232
0.76854
0.766506
0.653562
0.64308
0.629555
0.620351
0.617113
0.531967
0.515379
0.496084
0.482331
0.477802
0.434894
0.406249
0.379365
0.358861
0.350129
0.240238
0.148513
0.0780792
0.030225
0.00605315
0.252479
0.164769
0.0975922
0.0526838
0.0302134
0.279805
0.199111
0.137986
0.0977653
0.0779714
0.319127
0.250335
0.198838
0.164283
0.148215
0.364629
0.317855
0.278042
0.2508
0.239222
0.348944
0.476101
0.616384
0.766135
0.921548
0.356308
0.481012
0.619778
0.768336
0.922379
0.377141
0.496141
0.630512
0.775003
0.924894
0.405258
0.516249
0.643911
0.783664
0.928214
0.434993
0.53259
0.653512
0.789268
0.93059
1.06989
1.07228
1.07539
1.07754
1.07817
1.21053
1.21634
1.22577
1.23146
1.23349
1.34644
1.35692
1.37044
1.37965
1.38289
1.46803
1.48462
1.50392
1.51767
1.5222
1.56511
1.59375
1.62064
1.64114
1.64987
1.75976
1.85149
1.92192
1.96977
1.99395
1.74752
1.83523
1.90241
1.94732
1.96979
1.72019
1.80089
1.86201
1.90223
1.92203
1.68087
1.74967
1.80116
1.83572
1.85178
1.63537
1.68214
1.72196
1.7492
1.76078
1.65106
1.5239
1.38362
1.23387
1.07845
1.64369
1.51899
1.38022
1.23166
1.07762
1.62286
1.50386
1.36949
1.225
1.07511
1.59474
1.48375
1.35609
1.21634
1.07179
1.56501
1.46741
1.34649
1.21073
1.06941
0.244265
0.151271
0.0795249
0.0308113
0.00617021
0.264719
0.173068
0.10265
0.0550666
0.0308156
0.298372
0.21278
0.146814
0.102366
0.0793794
0.343215
0.268974
0.211167
0.171406
0.150274
0.392761
0.340891
0.294473
0.260235
0.242325
0.352754
0.480259
0.61957
0.768196
0.92233
0.367628
0.492209
0.628883
0.774495
0.924569
0.396526
0.514457
0.644934
0.784123
0.927909
0.431672
0.539696
0.662147
0.795759
0.932188
0.464189
0.558387
0.672626
0.801918
0.93473
0.93474
0.932335
0.928286
0.924613
0.922378
0.801497
0.795382
0.784442
0.774301
0.768212
0.672617
0.661661
0.645246
0.629251
0.619849
0.558078
0.539734
0.515622
0.494365
0.480935
0.464723
0.432967
0.399936
0.372307
0.354783
)
;
    }
}

// ************************************************************************* //
