/*--------------------------------*- C++ -*----------------------------------*\
| =========                 |                                                 |
| \\      /  F ield         | foam-extend: Open Source CFD                    |
|  \\    /   O peration     | Version:     4.1                                |
|   \\  /    A nd           | Web:         http://www.foam-extend.org         |
|    \\/     M anipulation  |                                                 |
\*---------------------------------------------------------------------------*/
FoamFile
{
    version     2.0;
    format      ascii;
    class       volScalarField;
    object      T;
}

// * * * * * * * * * * * * * * * * * * * * * * * * * * * * * * * * * * * * * //


dimensions [0 0 0 0 1 0 0];

internalField uniform 0;

boundaryField
{
    oversetFaces
    {
        type overset;
        value uniform 0;
        coupledFringe yes;

        setHoleCellValue  yes;
        holeCellValue     0;
    }
    in
    {
        type fixedValue;
        value uniform 1;
    }
    out
    {
        type zeroGradient;
    }
    top
    {
        type zeroGradient;
    }
    bottom
    {
        type zeroGradient;
    }
    cylinder
    {
        type zeroGradient;
    }
    outerCylinder
    {
        type zeroGradient;
    }
    frontAndBack
    {
        type empty;
    }
}


// ************************************************************************* //
