/*---------------------------------------------------------------------------*\
| =========                 |                                                 |
| \\      /  F ield         | OpenFOAM: The Open Source CFD Toolbox           |
|  \\    /   O peration     | Version:  1.0                                   |
|   \\  /    A nd           | Web:      http://www.openfoam.org               |
|    \\/     M anipulation  |                                                 |
\*---------------------------------------------------------------------------*/

FoamFile
{
    version         2.0;
    format          ascii;

    root            "";
    case            "";
    instance        "";
    local           "";

    class           volScalarField;
    object          b;
}

// * * * * * * * * * * * * * * * * * * * * * * * * * * * * * * * * * * * * * //


dimensions      [0 0 0 0 0 0 0];

internalField   uniform 1;

boundaryField
{
    piston          
    {
        type            zeroGradient;
    }

    liner           
    {
        type            zeroGradient;
    }

    cylinderHead    
    {
        type            zeroGradient;
    }
}


// ************************************************************************* //
