/*--------------------------------*- C++ -*----------------------------------*\
| =========                 |                                                 |
| \\      /  F ield         | foam-extend: Open Source CFD                    |
|  \\    /   O peration     | Version:     3.1                                |
|   \\  /    A nd           | Web:         http://www.extend-project.de       |
|    \\/     M anipulation  |                                                 |
\*---------------------------------------------------------------------------*/
FoamFile
{
    version     2.0;
    format      ascii;
    class       surfaceScalarField;
    location    "0";
    object      phi;
}
// * * * * * * * * * * * * * * * * * * * * * * * * * * * * * * * * * * * * * //

dimensions      [0 3 -1 0 0 0 0];

internalField   nonuniform List<scalar>
2106
(
0.0923669
3.95235e-09
0.0923668
-8.45339e-10
0.0923668
3.16835e-09
0.0923667
-8.18978e-09
0.0923667
-2.95371e-09
0.0923666
1.43543e-08
0.0923666
-1.3318e-08
0.0923665
1.19995e-08
0.0923664
6.68299e-09
0.0923663
-1.85652e-08
0.0923663
-3.33073e-09
0.0923662
-8.2126e-09
0.0923661
7.14385e-10
0.092366
-3.73769e-09
0.0923659
-8.82992e-09
0.0923658
-1.60203e-08
0.0923657
1.63194e-09
0.0923656
4.31495e-09
0.0923655
3.47613e-09
0.0923654
9.58397e-09
0.0923653
-1.89088e-08
0.0923652
-1.94044e-09
0.0923651
-2.12873e-08
0.092365
-1.79436e-09
5.6748e-09
0.0923669
1.85087e-08
0.0923668
1.02649e-10
0.0923668
-4.0807e-10
0.0923667
-2.6522e-08
0.0923667
-9.34368e-09
0.0923666
7.89026e-09
0.0923665
-1.2054e-08
0.0923665
2.60734e-08
0.0923664
-4.66861e-09
0.0923663
-1.49334e-08
0.0923663
-1.68176e-08
0.0923662
-7.54113e-09
0.0923661
-5.96399e-09
0.092366
-2.51077e-09
0.0923659
2.93937e-10
0.0923658
-1.73455e-08
0.0923657
4.90172e-09
0.0923656
-6.75084e-09
0.0923655
-1.65668e-08
0.0923654
7.6323e-09
0.0923653
-1.53371e-09
0.0923652
1.21655e-08
0.0923651
-2.63308e-08
0.092365
-5.87981e-09
1.1567e-08
0.0923669
1.41019e-08
0.0923668
1.25578e-09
0.0923668
-8.85806e-09
0.0923667
-1.5176e-08
0.0923666
-7.91305e-09
0.0923666
1.2997e-08
0.0923665
-4.63677e-09
0.0923664
1.51056e-08
0.0923664
-5.92701e-09
0.0923663
-1.75883e-08
0.0923662
-1.86112e-08
0.0923662
-1.14797e-08
0.0923661
-6.66052e-10
0.092366
2.16126e-08
0.0923659
1.06957e-08
0.0923657
-9.81436e-09
0.0923657
6.40673e-10
0.0923655
2.83825e-09
0.0923654
-1.19955e-08
0.0923653
-1.91438e-08
0.0923652
1.71913e-09
0.0923651
1.50807e-08
0.092365
-1.2873e-08
0.0923649
-2.72282e-10
-5.05407e-09
0.0923669
-4.98113e-09
0.0923669
-8.20443e-09
0.0923668
-7.67207e-09
0.0923667
-1.96783e-09
0.0923667
-4.03547e-09
0.0923666
1.54501e-08
0.0923665
-7.59145e-09
0.0923665
6.53401e-09
0.0923664
4.61489e-09
0.0923663
-1.44021e-08
0.0923662
-1.45769e-08
0.0923662
-7.72926e-09
0.0923661
1.20412e-09
0.092366
1.35697e-08
0.0923659
1.05418e-08
0.0923658
8.82582e-09
0.0923657
5.13345e-09
0.0923656
1.20049e-08
0.0923654
4.05033e-10
0.0923653
-1.941e-08
0.0923652
-1.85757e-10
0.0923651
9.01904e-09
0.092365
-1.03987e-08
0.092365
-5.64088e-09
-5.40196e-09
0.0923669
3.51021e-09
0.0923668
-8.49095e-09
0.0923668
-5.68608e-09
0.0923667
-6.74981e-10
0.0923666
4.18479e-09
0.0923666
6.60652e-09
0.0923665
-1.87778e-09
0.0923664
-7.035e-09
0.0923664
-5.15666e-09
0.0923663
-5.99065e-09
0.0923662
-5.73739e-09
0.0923661
-4.22739e-09
0.0923661
2.62024e-09
0.092366
-1.43289e-09
0.0923659
-1.61338e-09
0.0923658
7.08287e-09
0.0923657
3.65298e-09
0.0923656
9.34628e-09
0.0923655
5.74212e-09
0.0923654
1.19878e-09
0.0923653
6.22279e-09
0.0923652
8.33136e-09
0.092365
3.98583e-09
0.092365
-2.34173e-09
-1.74355e-09
0.0923669
9.35227e-09
0.0923668
1.64821e-09
0.0923667
3.30513e-09
0.0923667
5.74373e-09
0.0923666
7.05521e-10
0.0923666
-1.80988e-09
0.0923665
-3.75298e-09
0.0923664
-2.74674e-09
0.0923664
2.48704e-10
0.0923663
-8.15138e-10
0.0923662
-4.10585e-10
0.0923661
3.10506e-09
0.092366
9.18134e-09
0.0923659
1.71333e-09
0.0923658
3.10952e-09
0.0923657
3.6205e-09
0.0923656
-1.03055e-08
0.0923655
-1.53745e-09
0.0923654
4.71589e-09
0.0923653
2.46406e-09
0.0923652
3.99737e-09
0.0923651
3.8814e-09
0.0923651
2.81463e-09
0.092365
2.76271e-09
-2.24694e-09
0.0923669
2.10793e-08
0.0923668
1.54594e-09
0.0923667
1.63219e-08
0.0923667
9.90965e-09
0.0923666
9.24667e-10
0.0923666
-1.37106e-08
0.0923665
9.70671e-10
0.0923664
5.75775e-09
0.0923663
3.19423e-09
0.0923663
3.59498e-09
0.0923662
-1.00113e-08
0.0923661
3.13272e-10
0.092366
9.0836e-09
0.092366
4.60313e-11
0.0923659
4.87562e-09
0.0923658
4.15016e-09
0.0923656
-4.31198e-09
0.0923656
-1.57019e-09
0.0923654
-5.46609e-09
0.0923654
-2.22786e-09
0.0923653
-4.64926e-09
0.0923652
3.3175e-09
0.0923651
1.88384e-09
0.092365
-4.55063e-09
-1.28906e-09
0.0923669
2.25586e-08
0.0923668
-9.13985e-09
0.0923668
1.4045e-08
0.0923667
-4.67321e-09
0.0923667
1.6158e-08
0.0923666
-6.08029e-09
0.0923665
8.77273e-10
0.0923665
3.53043e-09
0.0923664
-6.78837e-09
0.0923663
-1.19141e-08
0.0923663
-1.52836e-08
0.0923662
3.43264e-09
0.0923661
2.36307e-08
0.092366
2.11888e-09
0.0923659
2.16032e-08
0.0923658
1.59124e-08
0.0923657
3.98538e-09
0.0923656
-5.8575e-09
0.0923655
-5.54906e-09
0.0923653
7.55677e-09
0.0923652
-3.38495e-09
0.0923651
2.57367e-09
0.0923651
-1.80301e-09
0.092365
-4.52713e-09
-3.49104e-09
0.0923669
7.86017e-09
0.0923669
-2.81823e-08
0.0923668
1.63209e-08
0.0923667
1.98724e-09
0.0923667
1.57627e-08
0.0923666
1.96111e-09
0.0923665
7.40581e-09
0.0923665
2.70512e-09
0.0923664
-1.96209e-09
0.0923663
-1.37902e-08
0.0923662
-6.35416e-09
0.0923662
1.1314e-08
0.0923661
1.47547e-08
0.092366
-8.37001e-09
0.0923659
1.45874e-08
0.0923658
1.35906e-08
0.0923657
6.29302e-09
0.0923656
-7.08052e-10
0.0923655
-1.31826e-08
0.0923654
1.93718e-08
0.0923653
-7.41385e-09
0.0923652
1.09366e-08
0.0923651
6.26107e-09
0.092365
-4.73149e-09
2.50158e-09
0.0923669
5.73561e-09
0.0923668
-2.88273e-08
0.0923668
1.40218e-08
0.0923667
6.54217e-10
0.0923667
1.48763e-08
0.0923666
1.90066e-09
0.0923665
5.24538e-09
0.0923665
6.62442e-09
0.0923664
-2.641e-09
0.0923663
-5.43323e-09
0.0923662
-1.3441e-08
0.0923662
1.12927e-09
0.0923661
-1.99084e-09
0.092366
1.18435e-08
0.0923659
-1.0787e-08
0.0923658
9.9653e-10
0.0923657
1.79805e-08
0.0923656
1.82449e-08
0.0923655
-1.64447e-09
0.0923654
2.0836e-08
0.0923653
-1.34019e-09
0.0923652
1.48893e-08
0.0923651
-3.53402e-10
0.092365
-2.5843e-09
1.64374e-08
0.0923669
2.02013e-08
0.0923668
-3.40233e-08
0.0923668
9.44649e-09
0.0923667
-8.5681e-09
0.0923667
6.25063e-10
0.0923666
-4.89417e-09
0.0923665
9.35106e-09
0.0923665
1.17639e-08
0.0923664
-2.01315e-08
0.0923664
-9.31002e-09
0.0923663
-1.14622e-08
0.0923662
1.83515e-08
0.0923661
8.60703e-09
0.092366
5.71308e-09
0.0923659
-2.22006e-08
0.0923658
7.1849e-10
0.0923657
1.62513e-08
0.0923656
2.3715e-08
0.0923655
1.61326e-08
0.0923654
1.78181e-08
0.0923653
-4.07465e-10
0.0923652
1.8785e-08
0.0923651
-6.33336e-09
0.092365
-3.42477e-09
1.22804e-08
0.0923669
1.63315e-08
0.0923668
-2.58774e-08
0.0923668
2.78621e-09
0.0923667
1.1625e-08
0.0923666
8.00129e-09
0.0923666
-6.89836e-09
0.0923665
1.45672e-08
0.0923664
1.54655e-08
0.0923663
9.13859e-10
0.0923663
-2.51801e-08
0.0923662
-2.16885e-08
0.0923661
5.67517e-09
0.0923661
1.86718e-08
0.092366
-5.27742e-09
0.0923659
-7.84723e-09
0.0923657
1.33238e-08
0.0923657
2.30685e-09
0.0923656
8.60077e-09
0.0923655
2.30135e-08
0.0923654
8.04403e-09
0.0923653
-1.54449e-09
0.0923652
9.23157e-09
0.0923651
1.16206e-09
0.092365
-8.64981e-09
-5.48735e-09
0.0923669
1.09292e-08
0.0923668
-1.1952e-08
0.0923668
-6.40803e-09
0.0923667
9.91471e-09
0.0923667
5.39886e-10
0.0923666
-3.51983e-09
0.0923665
-6.95315e-10
0.0923665
2.17523e-09
0.0923664
1.01549e-08
0.0923663
-1.28874e-08
0.0923662
-1.07152e-08
0.0923662
6.7972e-09
0.0923661
1.12781e-08
0.092366
8.61295e-09
0.0923659
-3.65096e-09
0.0923658
2.00311e-08
0.0923657
-3.59295e-10
0.0923656
-2.90062e-09
0.0923655
6.48503e-09
0.0923654
8.65671e-09
0.0923653
9.26246e-09
0.0923652
2.03626e-09
0.0923651
-5.94331e-09
0.092365
-1.49696e-08
-1.9739e-08
0.0923669
2.00835e-08
0.0923668
1.22584e-09
0.0923667
-1.70467e-09
0.0923667
1.83233e-08
0.0923666
-9.77793e-09
0.0923666
-7.66871e-09
0.0923665
-1.63047e-10
0.0923664
-1.41384e-08
0.0923664
2.03299e-08
0.0923663
8.13332e-09
0.0923662
-7.35776e-09
0.0923661
-3.6643e-09
0.092366
1.11463e-08
0.092366
4.66649e-09
0.0923659
-9.16515e-09
0.0923658
1.98965e-08
0.0923657
-1.72321e-09
0.0923656
-1.848e-08
0.0923655
-1.71683e-09
0.0923654
2.23022e-08
0.0923653
1.48249e-08
0.0923652
-5.99205e-09
0.0923651
-6.05153e-09
0.092365
-4.854e-09
-2.9217e-08
0.0923669
1.7341e-08
0.0923668
7.41551e-09
0.0923668
-1.45727e-09
0.0923667
1.44201e-08
0.0923666
-5.72077e-09
0.0923666
3.4222e-09
0.0923665
-6.66878e-09
0.0923664
-1.50357e-08
0.0923664
7.8739e-09
0.0923663
2.85311e-09
0.0923663
-1.87496e-08
0.0923662
-1.04757e-09
0.0923661
2.44132e-08
0.092366
5.54639e-09
0.0923659
-1.3734e-08
0.0923658
1.07075e-08
0.0923657
-1.51122e-08
0.0923656
-1.17275e-08
0.0923655
-7.20427e-10
0.0923654
1.59611e-08
0.0923653
3.3997e-09
0.0923652
-1.24999e-08
0.0923651
8.68633e-09
0.092365
-5.46508e-10
-1.12452e-08
0.0923669
6.94668e-09
0.0923668
3.82574e-09
0.0923668
3.74876e-09
0.0923667
1.92464e-08
0.0923666
3.31185e-09
0.0923666
2.87708e-08
0.0923665
-8.83942e-09
0.0923664
-1.70882e-08
0.0923664
-1.06403e-08
0.0923663
-1.1473e-08
0.0923662
-1.89366e-08
0.0923662
-8.14388e-09
0.0923661
1.01859e-08
0.092366
2.51195e-09
0.0923659
-4.09024e-09
0.0923658
1.24717e-08
0.0923657
-1.08931e-08
0.0923656
1.32621e-08
0.0923655
1.00223e-08
0.0923654
5.23409e-09
0.0923653
-4.03773e-09
0.0923652
-1.98131e-08
0.0923651
1.29621e-08
0.092365
-9.17859e-09
-1.0133e-08
0.0923669
0.0923668
0.0923668
0.0923667
0.0923667
0.0923666
0.0923665
0.0923665
0.0923664
0.0923663
0.0923662
0.0923661
0.0923661
0.092366
0.0923659
0.0923658
0.0923657
0.0923656
0.0923655
0.0923654
0.0923653
0.0923652
0.0923652
0.0923651
0.02327
7.74885e-09
0.0232699
1.41696e-09
0.0232699
-9.57131e-10
0.0232699
-3.62119e-09
0.0232699
1.13523e-08
0.0232699
3.12522e-09
0.0232698
-2.86122e-09
0.0232698
-4.84962e-09
0.0232698
-5.23166e-09
0.0232698
-1.28907e-09
0.0232699
-8.06475e-09
0.0232699
-6.62424e-09
0.0232699
-7.40942e-09
0.0232699
-2.50823e-09
0.02327
8.59164e-09
0.02327
3.33459e-09
0.02327
4.3053e-09
0.0232701
3.10714e-09
0.0232701
8.78454e-09
0.0232701
6.91819e-09
0.0232702
-9.12549e-09
0.0232702
-3.31506e-09
0.0232702
-5.33517e-09
0.0232702
-7.65902e-09
1.35332e-09
0.02327
3.70785e-10
0.02327
3.03789e-09
0.0232699
4.86823e-09
0.0232699
-2.90914e-09
0.0232699
-1.95351e-10
0.0232699
-2.7044e-09
0.0232699
-3.63755e-09
0.0232699
-3.7579e-09
0.0232698
-3.19192e-09
0.0232698
3.00894e-09
0.0232698
4.21092e-09
0.0232699
6.70565e-09
0.0232699
3.6661e-09
0.0232699
1.83707e-09
0.0232699
6.36381e-09
0.02327
-3.44752e-09
0.02327
-3.56345e-09
0.0232701
5.76425e-09
0.0232701
6.94735e-09
0.0232701
-3.17407e-09
0.0232702
-9.23543e-09
0.0232702
-4.00321e-09
0.0232702
-4.32991e-09
0.0232702
8.40139e-10
4.44986e-09
0.02327
-2.74763e-09
0.02327
2.62474e-11
0.0232699
1.30738e-10
0.0232699
-3.84847e-09
0.0232699
2.27275e-10
0.0232699
2.33006e-09
0.0232698
3.25227e-09
0.0232698
2.05192e-09
0.0232698
-3.3125e-10
0.0232698
3.74529e-09
0.0232698
5.78142e-09
0.0232699
4.14692e-09
0.0232699
5.92406e-09
0.0232699
5.98139e-09
0.02327
-2.39619e-09
0.02327
-8.74767e-09
0.02327
-3.21225e-09
0.0232701
2.99915e-10
0.0232701
-3.47588e-09
0.0232701
1.15255e-09
0.0232702
-1.54284e-09
0.0232702
5.09713e-09
0.0232702
5.7126e-09
0.0232702
8.91911e-09
7.03848e-09
0.02327
-8.53613e-09
0.02327
-7.97824e-09
0.0232699
-1.48631e-09
0.0232699
4.04277e-09
0.0232699
1.2839e-08
0.0232698
9.34885e-09
0.0232698
3.95493e-09
0.0232698
-1.01998e-08
0.0232698
-9.9859e-09
0.0232698
2.32697e-09
0.0232699
2.04818e-09
0.0232699
-2.20436e-09
0.0232699
3.56951e-09
0.02327
8.32864e-10
0.02327
-4.11098e-09
0.02327
-3.8012e-09
0.0232701
7.6904e-09
0.0232701
1.49702e-08
0.0232701
2.43589e-09
0.0232701
6.58851e-10
0.0232701
2.00417e-10
0.0232702
2.69427e-09
0.0232702
5.56619e-09
0.0232702
5.97321e-09
2.10374e-09
0.02327
-1.59013e-08
0.02327
-1.13305e-08
0.0232699
1.28089e-08
0.0232699
1.30843e-08
0.0232699
1.01546e-08
0.0232699
-5.0062e-09
0.0232699
-6.32348e-09
0.0232698
-8.76083e-09
0.0232698
2.78202e-09
0.0232698
7.8122e-09
0.0232698
-2.97484e-09
0.0232699
-1.15358e-09
0.0232699
7.06806e-09
0.0232699
-7.08833e-10
0.02327
-2.33308e-09
0.02327
3.25795e-09
0.02327
8.09196e-09
0.0232701
2.55665e-09
0.0232701
-1.0958e-08
0.0232701
-4.84662e-09
0.0232702
1.8364e-09
0.0232702
-3.01225e-09
0.0232702
3.53699e-11
0.0232702
-4.76245e-09
-2.51517e-09
0.02327
-3.51106e-09
0.0232699
-1.09558e-08
0.0232699
-3.99e-10
0.0232699
1.19452e-08
0.0232699
5.77267e-09
0.0232699
-1.07346e-08
0.0232698
-2.96218e-09
0.0232698
-7.49437e-09
0.0232698
1.23292e-08
0.0232698
5.27911e-09
0.0232698
-6.3462e-09
0.0232699
1.07653e-09
0.0232699
3.05533e-09
0.0232699
5.97879e-10
0.02327
1.07661e-08
0.02327
4.89943e-09
0.02327
-5.32135e-09
0.0232701
-9.46447e-09
0.0232701
-7.88158e-09
0.0232701
2.14194e-10
0.0232702
-4.20458e-09
0.0232702
2.13941e-10
0.0232702
1.11113e-08
0.0232702
2.56573e-09
3.0141e-09
0.02327
-2.45247e-09
0.02327
-1.56176e-08
0.0232699
8.54891e-10
0.0232699
1.83174e-08
0.0232699
5.16456e-09
0.0232699
-8.57981e-09
0.0232698
4.24944e-10
0.0232698
-3.43984e-09
0.0232698
1.36032e-08
0.0232698
1.53696e-10
0.0232698
-3.73063e-09
0.0232699
9.08734e-09
0.0232699
-4.15962e-09
0.0232699
2.02938e-09
0.02327
-1.57902e-09
0.02327
-5.18108e-09
0.02327
-2.34878e-09
0.0232701
6.58674e-09
0.0232701
-4.15813e-09
0.0232701
-5.35694e-09
0.0232701
-2.80711e-09
0.0232702
2.36738e-09
0.0232702
-2.98841e-09
0.0232702
-2.25719e-09
1.72771e-09
0.02327
-5.18007e-09
0.02327
-2.09688e-08
0.0232699
6.56515e-09
0.0232699
1.14191e-08
0.0232699
1.32482e-09
0.0232699
3.43224e-09
0.0232698
-1.99134e-10
0.0232698
-3.04248e-09
0.0232698
1.66899e-08
0.0232698
-1.55847e-08
0.0232699
-7.52236e-09
0.0232699
5.21657e-09
0.0232699
8.99828e-09
0.0232699
1.56125e-08
0.02327
2.61039e-09
0.02327
-9.89817e-09
0.02327
3.95898e-09
0.0232701
2.42802e-09
0.0232701
-1.11184e-08
0.0232701
-4.98618e-09
0.0232701
-1.61613e-09
0.0232702
-1.4587e-09
0.0232702
-8.16032e-09
0.0232702
-6.11832e-10
-3.95375e-09
0.02327
-6.64263e-09
0.0232699
-1.01699e-08
0.0232699
-1.68899e-09
0.0232699
5.36126e-09
0.0232699
8.19589e-09
0.0232698
1.66281e-08
0.0232698
5.15802e-09
0.0232698
-9.32175e-09
0.0232698
9.70391e-09
0.0232698
-1.22951e-08
0.0232698
4.21074e-10
0.0232699
6.21547e-09
0.0232699
-6.91801e-09
0.0232699
-5.55324e-09
0.02327
1.20597e-08
0.02327
-1.55663e-09
0.02327
1.54334e-08
0.0232701
-1.51695e-09
0.0232701
-2.01261e-08
0.0232701
-7.87013e-09
0.0232701
8.87379e-09
0.0232702
-1.58757e-09
0.0232702
-1.55131e-08
0.0232702
-3.69877e-10
5.88125e-09
0.02327
5.99836e-09
0.0232699
-4.32662e-09
0.0232699
-1.35045e-08
0.0232699
1.65041e-09
0.0232699
7.80951e-09
0.0232699
1.06993e-08
0.0232699
4.22938e-09
0.0232698
1.89251e-09
0.0232698
8.91343e-10
0.0232698
-1.01076e-08
0.0232698
6.12881e-09
0.0232699
1.24982e-08
0.0232699
-5.92595e-09
0.0232699
-8.03694e-09
0.02327
1.03294e-08
0.02327
9.34596e-10
0.02327
4.32261e-09
0.0232701
-8.57958e-09
0.0232701
-1.05043e-08
0.0232702
-2.55184e-08
0.0232702
5.6182e-09
0.0232702
8.58517e-09
0.0232702
-5.38078e-09
0.0232702
1.04028e-09
9.93819e-09
0.02327
4.2894e-09
0.02327
-2.09096e-08
0.02327
-9.61133e-09
0.0232699
4.2631e-09
0.0232699
1.60977e-08
0.0232699
1.49552e-08
0.0232699
-1.1664e-08
0.0232699
2.556e-09
0.0232699
-4.00613e-09
0.0232699
-5.3001e-09
0.0232699
1.40061e-08
0.0232699
4.01405e-09
0.0232699
1.59548e-09
0.02327
-1.72435e-08
0.02327
1.95637e-08
0.02327
2.3961e-09
0.0232701
-5.50364e-09
0.0232701
-3.20292e-09
0.0232701
9.18858e-09
0.0232701
-1.66396e-08
0.0232701
3.32723e-09
0.0232702
1.69122e-08
0.0232702
-3.48728e-09
0.0232702
3.18023e-10
-9.80315e-09
0.02327
1.72334e-08
0.0232699
-2.0302e-08
0.0232699
-1.20565e-08
0.0232699
-8.71843e-09
0.0232699
-5.93079e-12
0.0232699
1.49689e-08
0.0232698
-3.40986e-09
0.0232698
1.41789e-08
0.0232698
-6.82981e-09
0.0232698
-1.03759e-08
0.0232699
3.68136e-09
0.0232699
-2.56032e-09
0.0232699
1.83276e-08
0.0232699
-2.55031e-08
0.02327
3.09976e-08
0.02327
-3.77075e-09
0.02327
-2.94081e-09
0.0232701
1.34721e-08
0.0232701
2.32161e-09
0.0232701
-9.69632e-09
0.0232701
-9.26889e-10
0.0232702
6.89189e-09
0.0232702
9.72652e-09
0.0232702
1.14972e-08
-3.70594e-09
0.02327
1.42284e-08
0.02327
-2.10075e-08
0.0232699
-1.31367e-08
0.0232699
-2.43833e-09
0.0232699
2.21775e-09
0.0232699
1.32035e-08
0.0232698
-9.54373e-09
0.0232698
2.77961e-09
0.0232698
-2.41083e-09
0.0232698
7.04299e-09
0.0232698
9.39114e-09
0.0232699
-4.44996e-09
0.0232699
1.55529e-08
0.0232699
-2.75517e-08
0.02327
2.8468e-08
0.02327
-5.07439e-09
0.02327
-5.69478e-09
0.0232701
1.20922e-08
0.0232701
2.67349e-09
0.0232701
5.5592e-09
0.0232701
5.58902e-09
0.0232702
-1.20926e-08
0.0232702
1.46389e-08
0.0232702
6.10968e-10
1.25067e-08
0.02327
3.36678e-09
0.02327
-1.77507e-08
0.0232699
-9.16084e-10
0.0232699
-5.13273e-10
0.0232699
-4.40173e-09
0.0232699
2.22852e-10
0.0232698
-1.35653e-09
0.0232698
-2.62823e-10
0.0232698
-8.73707e-09
0.0232698
1.16789e-08
0.0232699
1.05981e-08
0.0232699
-1.02591e-09
0.0232699
7.41365e-09
0.0232699
-3.95397e-09
0.02327
2.30658e-08
0.02327
2.76756e-09
0.02327
-4.26311e-09
0.0232701
1.02061e-09
0.0232701
-2.4735e-09
0.0232701
-3.36611e-09
0.0232702
1.34574e-08
0.0232702
-2.07617e-08
0.0232702
1.32176e-08
0.0232702
-3.07207e-09
7.05847e-09
0.02327
-6.40948e-09
0.02327
-5.21474e-09
0.0232699
2.70832e-09
0.0232699
-1.50692e-08
0.0232699
-4.80985e-09
0.0232699
-2.72646e-10
0.0232698
1.12805e-08
0.0232698
-3.60176e-09
0.0232698
-8.12687e-09
0.0232698
2.33374e-08
0.0232698
5.28695e-09
0.0232699
-7.68162e-10
0.0232699
-1.01641e-08
0.0232699
6.24342e-09
0.02327
2.34077e-08
0.02327
-1.35812e-09
0.02327
8.53871e-09
0.0232701
-4.03165e-10
0.0232701
4.64447e-09
0.0232701
-9.06334e-09
0.0232701
1.44609e-08
0.0232702
-1.11285e-08
0.0232702
2.25807e-08
0.0232702
6.31187e-09
-2.44579e-09
0.02327
-6.9371e-09
0.02327
-1.86948e-09
0.0232699
-9.95169e-10
0.0232699
-1.02035e-08
0.0232699
7.45052e-10
0.0232699
-9.55759e-10
0.0232698
7.34237e-09
0.0232698
-1.45876e-08
0.0232699
-1.91026e-08
0.0232699
2.31492e-08
0.0232699
1.49802e-08
0.0232699
1.83013e-08
0.0232699
-3.37642e-09
0.0232699
-6.4684e-09
0.02327
4.41469e-09
0.02327
5.41514e-10
0.0232701
1.41227e-08
0.0232701
1.13039e-08
0.0232701
1.05831e-08
0.0232701
-1.00557e-08
0.0232702
1.26836e-08
0.0232702
2.71333e-09
0.0232702
6.86705e-09
0.0232702
-1.71466e-09
-1.35974e-08
0.02327
-1.72054e-08
0.02327
-6.51694e-09
0.0232699
1.70195e-10
0.0232699
-4.44231e-09
0.0232699
1.22298e-08
0.0232698
5.91979e-09
0.0232698
1.36751e-08
0.0232698
-5.21396e-10
0.0232698
-7.66016e-09
0.0232698
1.01953e-08
0.0232698
4.78886e-09
0.0232699
6.00024e-10
0.0232699
2.92837e-09
0.0232699
3.54894e-09
0.02327
-4.82292e-10
0.02327
-4.42418e-09
0.02327
1.25741e-08
0.0232701
5.82455e-09
0.0232701
8.35522e-09
0.0232701
1.39448e-09
0.0232702
3.31954e-09
0.0232702
1.13331e-08
0.0232702
-1.21716e-08
0.0232702
-3.05538e-09
-5.07223e-09
0.02327
-1.18149e-08
0.02327
-4.76508e-09
0.0232699
-1.65904e-10
0.0232699
2.79624e-10
0.0232699
2.35199e-08
0.0232698
-4.33548e-09
0.0232698
-2.1887e-09
0.0232698
-9.48353e-09
0.0232698
-6.07577e-09
0.0232698
2.45611e-08
0.0232698
4.83218e-09
0.0232699
-8.32849e-09
0.0232699
7.6461e-09
0.0232699
1.25842e-09
0.02327
7.10664e-09
0.02327
-5.6831e-09
0.02327
2.15874e-08
0.0232701
8.98594e-11
0.0232701
1.62296e-09
0.0232701
1.08429e-08
0.0232702
-5.49339e-09
0.0232702
1.29005e-08
0.0232702
-1.89995e-08
0.0232702
-3.58721e-09
1.28145e-08
0.02327
3.83233e-09
0.0232699
2.54961e-09
0.0232699
-1.4242e-08
0.0232699
-1.18307e-08
0.0232699
2.13591e-08
0.0232699
-3.66821e-09
0.0232698
5.88651e-09
0.0232698
-6.92905e-09
0.0232698
-3.2421e-09
0.0232698
2.38908e-08
0.0232699
-1.59199e-08
0.0232699
-1.24995e-08
0.0232699
5.57496e-09
0.02327
-4.99489e-10
0.02327
1.30608e-08
0.02327
9.62269e-09
0.0232701
1.09202e-09
0.0232701
-1.157e-09
0.0232701
-1.12919e-08
0.0232702
9.83049e-09
0.0232702
7.25906e-09
0.0232702
9.2152e-09
0.0232702
-1.94592e-09
0.0232702
1.42576e-09
1.51729e-08
0.02327
-4.21856e-09
0.02327
5.17926e-09
0.0232699
6.937e-10
0.0232699
-6.05347e-10
0.0232699
7.45671e-09
0.0232698
-1.35841e-09
0.0232698
6.82115e-09
0.0232698
-1.17404e-08
0.0232698
-1.12076e-08
0.0232698
3.60497e-08
0.0232698
-9.98059e-09
0.0232698
3.15502e-09
0.0232699
-6.92572e-09
0.0232699
-1.89739e-08
0.02327
2.87954e-09
0.02327
2.60103e-08
0.02327
-1.04847e-09
0.0232701
-8.19235e-09
0.0232701
-1.63524e-08
0.0232701
1.06178e-08
0.0232702
1.50336e-08
0.0232702
3.15014e-09
0.0232702
1.96152e-09
0.0232702
-8.77872e-09
2.81646e-09
0.02327
1.88077e-09
0.02327
-4.80038e-09
0.0232699
4.96803e-09
0.0232699
-2.98558e-09
0.0232699
-1.34131e-08
0.0232699
3.30949e-09
0.0232699
5.45019e-09
0.0232698
8.08043e-09
0.0232698
-7.82374e-09
0.0232698
2.63361e-08
0.0232699
-8.59066e-09
0.0232699
-1.57017e-09
0.0232699
3.08143e-09
0.0232699
-2.07231e-08
0.02327
1.73306e-09
0.02327
1.54094e-08
0.0232701
-3.00011e-09
0.0232701
-7.59083e-09
0.0232701
-1.4839e-08
0.0232701
7.56813e-09
0.0232702
1.93309e-08
0.0232702
-1.12452e-09
0.0232702
-4.83868e-09
0.0232702
-7.65438e-09
-9.61451e-09
0.02327
4.14496e-09
0.02327
2.8463e-09
0.0232699
2.0475e-08
0.0232699
1.945e-09
0.0232699
-9.26442e-09
0.0232698
-6.62916e-09
0.0232698
9.68454e-10
0.0232698
2.98499e-09
0.0232698
-4.30227e-09
0.0232698
1.0478e-08
0.0232699
-8.5349e-09
0.0232699
-5.13257e-09
0.0232699
7.33963e-09
0.0232699
-1.25074e-08
0.02327
3.61291e-10
0.02327
2.16043e-08
0.02327
-2.04577e-09
0.0232701
-2.90748e-09
0.0232701
-3.21574e-09
0.0232701
-5.45604e-09
0.0232702
5.31286e-09
0.0232702
-4.76129e-09
0.0232702
-5.0737e-09
0.0232702
7.19639e-09
-2.23353e-09
0.02327
1.05396e-08
0.02327
4.01288e-09
0.0232699
1.79039e-08
0.0232699
-1.54363e-10
0.0232699
4.13109e-09
0.0232699
-1.91013e-08
0.0232698
-1.85626e-09
0.0232698
9.97395e-09
0.0232698
4.1147e-09
0.0232698
-2.46193e-11
0.0232699
-1.20084e-08
0.0232699
-1.37606e-08
0.0232699
-7.8402e-10
0.0232699
-2.67008e-09
0.02327
-4.14871e-09
0.02327
1.79708e-08
0.0232701
-1.26962e-09
0.0232701
1.38206e-09
0.0232701
-1.39145e-08
0.0232702
-1.03448e-08
0.0232702
2.19358e-09
0.0232702
1.51875e-08
0.0232702
-1.80182e-09
0.0232702
2.11414e-09
-4.04856e-09
0.02327
1.27353e-08
0.0232699
7.79539e-09
0.0232699
1.05368e-08
0.0232699
-7.77914e-09
0.0232699
5.11286e-09
0.0232699
-1.19418e-08
0.0232699
-1.43244e-08
0.0232698
1.12769e-08
0.0232698
1.62183e-08
0.0232698
-4.29271e-09
0.0232699
-1.18447e-08
0.0232699
-8.60941e-09
0.0232699
5.48941e-09
0.0232699
-4.41769e-09
0.02327
-5.32449e-09
0.02327
8.43457e-09
0.02327
6.97171e-09
0.0232701
-6.71818e-09
0.0232701
-1.54704e-09
0.0232701
-8.13236e-09
0.0232701
-8.07229e-09
0.0232702
5.10419e-09
0.0232702
1.53597e-09
0.0232702
6.78759e-09
-5.62174e-09
0.02327
4.23137e-09
0.02327
4.51882e-09
0.0232699
1.14161e-08
0.0232699
-5.38934e-09
0.0232699
7.62743e-09
0.0232699
-2.40099e-09
0.0232698
-7.68921e-09
0.0232698
1.78523e-08
0.0232698
6.86741e-09
0.0232698
-5.55462e-09
0.0232699
-2.87703e-08
0.0232699
-1.42591e-08
0.0232699
6.56969e-09
0.02327
-1.07201e-08
0.02327
1.00418e-08
0.02327
-4.5707e-10
0.02327
1.77127e-08
0.0232701
-8.77631e-09
0.0232701
-4.88304e-10
0.0232701
6.31734e-09
0.0232701
-3.1397e-09
0.0232702
6.66538e-11
0.0232702
1.27006e-09
0.0232702
1.10933e-08
1.13233e-08
0.02327
-8.16164e-10
0.02327
-5.46654e-09
0.0232699
1.41715e-08
0.0232699
-7.78745e-10
0.0232699
2.07621e-08
0.0232698
6.06812e-09
0.0232698
-1.62589e-08
0.0232698
1.16663e-08
0.0232698
-7.44412e-10
0.0232698
6.10189e-09
0.0232698
-1.42071e-08
0.0232699
-3.00087e-08
0.0232699
-7.13665e-09
0.0232699
-9.25553e-09
0.02327
8.01844e-09
0.02327
-6.79031e-09
0.0232701
1.63595e-08
0.0232701
1.32667e-08
0.0232701
7.78217e-09
0.0232701
2.37038e-08
0.0232701
-8.70146e-09
0.0232702
-5.75829e-09
0.0232702
-1.29612e-08
0.0232702
-4.44791e-09
-2.19492e-09
0.02327
0.02327
0.0232699
0.0232699
0.0232699
0.0232699
0.0232698
0.0232698
0.0232698
0.0232698
0.0232699
0.0232699
0.0232699
0.0232699
0.02327
0.02327
0.02327
0.0232701
0.0232701
0.0232701
0.0232702
0.0232702
0.0232702
0.0232702
)
;

boundaryField
{
    outflow
    {
        type            calculated;
        value           nonuniform List<scalar>
27
(
0.0232702
0.0232702
0.0232702
0.0232702
0.0232702
0.0232702
0.0232702
0.0232702
0.0232702
0.0232702
0.0232702
0.0232702
0.0232702
0.0232702
0.0232702
0.0232702
0.0232702
0.0232702
0.0232702
0.0232702
0.0232702
0.0232702
0.0232702
0.0232702
0.0232702
0.0232702
0.0232702
)
;
    }
    inflow
    {
        type            calculated;
        value           nonuniform List<scalar>
17
(
-0.0923669
-0.0923669
-0.0923669
-0.0923669
-0.0923669
-0.0923669
-0.0923669
-0.0923669
-0.0923669
-0.0923669
-0.0923669
-0.0923669
-0.0923669
-0.0923669
-0.0923669
-0.0923669
-0.0923669
)
;
    }
    upstreamPerio1
    {
        type            cyclicGgi;
        value           nonuniform List<scalar>
25
(
-3.3879e-11
-1.31983e-09
-1.75604e-08
5.27141e-09
-1.02796e-08
-9.79111e-09
2.59151e-09
-4.29919e-09
1.62803e-08
-2.71032e-09
1.20124e-08
2.17639e-08
9.56103e-09
5.05822e-09
-8.79218e-09
-2.94675e-09
-1.25113e-08
-1.06281e-08
2.2899e-10
-1.13002e-08
3.07485e-09
1.5798e-10
1.63071e-08
-3.01393e-09
-6.53296e-09
)
;
    }
    upstreamPerio2
    {
        type            cyclicGgi;
        value           nonuniform List<scalar>
25
(
3.42208e-10
1.30376e-09
1.75446e-08
-5.63949e-09
1.02644e-08
1.01165e-08
-2.60616e-09
4.28479e-09
-1.62573e-08
2.65497e-09
-1.2026e-08
-2.17773e-08
-9.57427e-09
-5.07126e-09
9.03359e-09
2.68412e-09
1.24988e-08
1.06158e-08
-2.41073e-10
1.15242e-08
-3.08659e-09
-1.69557e-10
-1.65487e-08
3.00267e-09
6.74198e-09
)
;
    }
    upstreamMixingPlanePatch
    {
        type            mixingPlane;
        value           nonuniform List<scalar>
27
(
-0.02327
-0.02327
-0.02327
-0.02327
-0.02327
-0.02327
-0.02327
-0.02327
-0.02327
-0.02327
-0.02327
-0.02327
-0.02327
-0.02327
-0.02327
-0.02327
-0.02327
-0.02327
-0.02327
-0.02327
-0.02327
-0.02327
-0.02327
-0.02327
-0.02327
-0.02327
-0.02327
)
;
    }
    downstreamMixingPlanePatch
    {
        type            mixingPlane;
        value           nonuniform List<scalar>
17
(
0.0923649
0.0923649
0.0923649
0.0923649
0.0923649
0.0923649
0.0923649
0.0923649
0.0923649
0.0923649
0.0923649
0.0923649
0.0923649
0.0923649
0.0923649
0.0923649
0.092365
)
;
    }
    downstreamWall
    {
        type            symmetryPlane;
    }
    upstreamWall
    {
        type            symmetryPlane;
    }
    downstreamPerio1
    {
        type            cyclicGgi;
        value           nonuniform List<scalar>
25
(
-6.72617e-09
1.00031e-09
-5.51936e-09
-1.09217e-08
3.80039e-09
-1.91373e-08
1.82611e-10
-7.19369e-10
-7.55125e-09
1.1679e-08
6.7516e-09
2.19056e-08
1.63281e-09
1.44917e-09
8.60061e-09
7.8476e-10
1.16898e-08
-4.70698e-09
-5.75591e-09
6.00729e-09
1.92363e-08
2.44091e-08
3.47424e-09
-1.05863e-09
6.80317e-09
)
;
    }
    downstreamPerio2
    {
        type            cyclicGgi;
        value           nonuniform List<scalar>
25
(
6.72617e-09
-1.00031e-09
5.51936e-09
1.09217e-08
-3.80039e-09
1.91373e-08
-1.82611e-10
7.19369e-10
7.55125e-09
-1.1679e-08
-6.7516e-09
-2.19056e-08
-1.63281e-09
-1.44917e-09
-8.60061e-09
-7.8476e-10
-1.16898e-08
4.70698e-09
5.75591e-09
-6.00729e-09
-1.92363e-08
-2.44091e-08
-3.47424e-09
1.05863e-09
-6.80317e-09
)
;
    }
}

// ************************************************************************* //
