/*--------------------------------*- C++ -*----------------------------------*\
| =========                 |                                                 |
| \\      /  F ield         | OpenFOAM Extend Project: Open source CFD        |
|  \\    /   O peration     | Version:  1.6-ext                               |
|   \\  /    A nd           | Web:      www.extend-project.de                 |
|    \\/     M anipulation  |                                                 |
\*---------------------------------------------------------------------------*/
FoamFile
{
    version     2.0;
    format      ascii;
    class       surfaceScalarField;
    location    "0";
    object      phi;
}
// * * * * * * * * * * * * * * * * * * * * * * * * * * * * * * * * * * * * * //

dimensions      [0 3 -1 0 0 0 0];

internalField   nonuniform List<scalar> 
2106
(
0.0923669
9.34232e-09
0.0923669
5.37531e-09
0.0923669
1.03723e-08
0.0923669
-8.78152e-09
0.0923669
-9.56504e-09
0.0923669
1.36495e-08
0.0923669
-9.10824e-09
0.0923669
5.73917e-09
0.0923668
2.53731e-09
0.0923668
-1.14006e-08
0.0923668
-1.5349e-08
0.0923668
-6.76177e-09
0.0923668
9.30043e-09
0.0923668
-3.90622e-09
0.0923667
-5.38378e-09
0.0923667
-5.04567e-09
0.0923666
4.18096e-09
0.0923665
4.0368e-09
0.0923664
3.65387e-09
0.0923663
1.06777e-08
0.0923662
2.8671e-09
0.0923661
-9.41557e-09
0.092366
-2.24164e-08
0.0923659
-5.24125e-09
-8.02011e-09
0.0923669
1.96624e-08
0.0923669
-1.12907e-08
0.0923669
7.65168e-09
0.0923669
-1.34087e-08
0.0923669
-8.05174e-09
0.0923669
5.47799e-09
0.0923669
-4.16757e-09
0.0923668
1.83055e-08
0.0923668
-5.56511e-09
0.0923668
2.41508e-09
0.0923668
-1.72728e-08
0.0923668
-1.07129e-09
0.0923668
4.81645e-09
0.0923668
-1.86261e-09
0.0923667
-4.90038e-09
0.0923667
-7.92368e-09
0.0923666
-8.07654e-09
0.0923665
-8.26704e-09
0.0923665
-5.73988e-09
0.0923664
-4.88931e-09
0.0923663
-2.5949e-09
0.0923662
1.57425e-09
0.092366
-1.29839e-08
0.0923659
-1.5508e-09
1.63407e-10
0.0923669
2.45034e-08
0.0923669
-6.8906e-09
0.0923669
-5.94696e-10
0.0923669
-1.60452e-08
0.0923669
-4.78827e-09
0.0923668
9.76552e-09
0.0923668
-4.78544e-09
0.0923668
7.52983e-09
0.0923668
-3.76449e-09
0.0923668
-4.43089e-09
0.0923668
-1.29194e-08
0.0923668
-2.02578e-09
0.0923668
1.22857e-08
0.0923668
1.1979e-09
0.0923667
3.05215e-09
0.0923666
5.0239e-09
0.0923666
-9.46194e-09
0.0923665
-2.47459e-09
0.0923664
-3.65133e-09
0.0923663
-1.48041e-08
0.0923662
-6.93762e-09
0.0923661
1.18211e-08
0.092366
-1.07034e-08
0.0923659
-1.19119e-08
-2.30037e-09
0.0923669
1.18877e-08
0.0923669
-1.01243e-08
0.0923669
-7.04993e-09
0.0923669
7.80816e-11
0.0923669
9.12513e-09
0.0923668
9.79549e-09
0.0923668
-4.34299e-09
0.0923668
9.20523e-11
0.0923668
2.71891e-10
0.0923668
-1.66065e-08
0.0923668
-7.60533e-09
0.0923668
2.63364e-09
0.0923668
1.32292e-08
0.0923668
6.82613e-09
0.0923667
1.57598e-09
0.0923667
3.09606e-09
0.0923666
-2.1416e-09
0.0923665
7.49041e-09
0.0923664
2.16803e-09
0.0923663
-1.36944e-08
0.0923662
-7.36935e-09
0.0923661
7.36683e-09
0.092366
-4.12498e-09
0.0923659
-6.35913e-09
-5.34605e-09
0.0923669
2.97646e-09
0.0923669
-2.1504e-10
0.0923669
4.43439e-09
0.0923669
1.50619e-09
0.0923669
3.22838e-09
0.0923668
4.82015e-09
0.0923668
1.6915e-09
0.0923668
-3.29726e-09
0.0923668
-8.50585e-10
0.0923668
-2.54415e-09
0.0923668
-4.89723e-09
0.0923668
-4.66462e-09
0.0923668
9.25513e-10
0.0923668
4.07911e-10
0.0923667
2.81463e-09
0.0923667
7.35984e-09
0.0923666
2.22332e-09
0.0923665
3.30814e-09
0.0923664
4.74238e-09
0.0923663
-7.08553e-10
0.0923662
1.83952e-09
0.0923661
1.29036e-09
0.092366
1.22543e-09
0.0923659
-6.42819e-11
-1.52244e-09
0.0923669
5.96015e-09
0.0923669
8.05625e-09
0.0923669
5.94179e-09
0.0923669
9.65212e-09
0.0923668
2.02196e-12
0.0923668
4.21231e-10
0.0923668
3.42139e-09
0.0923668
1.82875e-09
0.0923668
-3.98394e-10
0.0923668
-5.03407e-10
0.0923668
2.37276e-09
0.0923668
3.35379e-09
0.0923667
9.12984e-09
0.0923667
-1.94982e-09
0.0923667
-5.61999e-09
0.0923666
-3.83721e-09
0.0923666
-7.06949e-09
0.0923665
4.33074e-10
0.0923664
3.78996e-09
0.0923663
1.4379e-09
0.0923662
2.98136e-09
0.0923661
4.23168e-09
0.092366
4.01934e-09
0.0923659
6.2241e-10
-5.22367e-10
0.0923669
2.19056e-08
0.0923669
6.89894e-09
0.0923669
6.69376e-09
0.0923669
1.20143e-09
0.0923669
-4.17437e-09
0.0923668
9.46617e-10
0.0923668
2.32828e-09
0.0923668
5.81272e-09
0.0923668
6.15573e-10
0.0923668
9.78121e-09
0.0923668
-6.33372e-10
0.0923668
3.53927e-09
0.0923668
6.38394e-09
0.0923668
-5.95846e-09
0.0923667
1.9225e-09
0.0923666
1.25979e-08
0.0923666
-1.3955e-08
0.0923665
-1.05853e-09
0.0923664
-5.02525e-09
0.0923663
-4.62033e-09
0.0923662
1.83964e-09
0.0923661
1.69784e-09
0.092366
-3.90954e-09
0.0923659
-4.59031e-10
1.24147e-09
0.0923669
9.83653e-09
0.0923669
-1.21981e-09
0.0923669
1.79648e-08
0.0923669
1.32233e-09
0.0923669
2.66294e-09
0.0923669
1.01356e-09
0.0923668
-2.16893e-09
0.0923668
1.11637e-08
0.0923668
-1.01265e-08
0.0923668
-4.9829e-09
0.0923669
-1.17786e-08
0.0923668
1.59488e-08
0.0923668
5.62595e-09
0.0923668
2.5718e-09
0.0923667
9.22151e-09
0.0923667
1.15643e-08
0.0923666
-6.4651e-09
0.0923665
-7.20885e-09
0.0923664
-8.64403e-09
0.0923663
9.37605e-09
0.0923662
-3.36489e-09
0.0923661
3.24861e-09
0.092366
9.62565e-09
0.0923659
3.12158e-09
-4.24434e-09
0.0923669
-6.7243e-09
0.0923669
-1.8354e-08
0.0923669
1.8299e-08
0.0923669
-3.86308e-09
0.0923669
-2.46044e-09
0.0923669
1.06843e-08
0.0923669
1.03419e-08
0.0923669
7.62058e-09
0.0923668
6.93016e-09
0.0923668
-3.51761e-09
0.0923668
-8.33316e-10
0.0923668
1.91433e-08
0.0923668
-1.02099e-08
0.0923668
-2.43436e-09
0.0923667
3.6427e-09
0.0923667
1.19496e-08
0.0923666
1.59219e-08
0.0923665
-9.53709e-09
0.0923664
-1.13393e-08
0.0923663
1.8474e-08
0.0923662
-1.36284e-08
0.0923661
5.45616e-09
0.092366
4.22476e-10
0.0923659
9.96819e-09
5.93421e-09
0.0923669
6.73995e-09
0.0923669
-3.17108e-08
0.0923669
1.81555e-08
0.0923669
-7.9203e-09
0.0923669
1.54473e-09
0.0923669
2.66067e-09
0.0923668
1.90902e-08
0.0923668
3.47329e-09
0.0923669
-1.03602e-08
0.0923668
-2.858e-09
0.0923668
-2.6725e-09
0.0923669
-1.13742e-08
0.0923668
-8.74119e-09
0.0923668
1.05899e-08
0.0923668
-8.96021e-09
0.0923667
7.06254e-09
0.0923666
2.78313e-08
0.0923665
1.33259e-08
0.0923664
2.53423e-09
0.0923663
1.18447e-08
0.0923662
-1.13933e-08
0.0923661
7.18404e-09
0.092366
-6.2651e-09
0.0923659
8.94068e-09
1.36112e-08
0.0923669
5.67463e-09
0.0923669
-2.63892e-08
0.0923669
6.36383e-09
0.0923669
-1.71957e-08
0.0923669
5.9101e-09
0.0923669
-6.07282e-09
0.0923669
1.48732e-08
0.0923669
7.91895e-09
0.0923669
-1.25557e-08
0.0923669
-1.05068e-08
0.0923669
-7.05154e-09
0.0923668
2.70224e-09
0.0923668
1.10052e-08
0.0923668
7.84186e-09
0.0923667
-4.09366e-09
0.0923667
3.28805e-10
0.0923666
1.99982e-08
0.0923665
1.39069e-08
0.0923664
4.93476e-09
0.0923663
5.90337e-09
0.0923662
-1.75104e-09
0.0923661
7.64207e-09
0.092366
-7.98789e-09
0.0923659
-1.12644e-08
-2.72768e-09
0.0923669
7.24014e-09
0.0923669
-8.36059e-09
0.0923669
-7.79168e-09
0.0923669
2.27487e-09
0.0923668
-6.642e-10
0.0923668
3.69791e-09
0.0923668
1.87941e-08
0.0923668
3.08439e-09
0.0923668
2.39518e-09
0.0923668
-1.00735e-08
0.0923668
-6.56379e-09
0.0923668
9.97023e-10
0.0923668
2.71258e-09
0.0923667
2.15156e-10
0.0923667
-3.16148e-09
0.0923666
6.9804e-09
0.0923666
2.40023e-09
0.0923665
2.93612e-09
0.0923664
1.03518e-08
0.0923663
3.85221e-09
0.0923662
7.14151e-10
0.0923661
-1.72619e-09
0.092366
-1.8644e-09
0.0923659
-8.72272e-09
-6.93958e-09
0.0923669
5.46615e-09
0.0923669
-6.90368e-09
0.0923669
-1.90715e-08
0.0923669
2.65175e-09
0.0923669
3.13808e-09
0.0923669
1.01472e-09
0.0923669
7.36504e-10
0.0923669
-1.36332e-09
0.0923669
1.36669e-08
0.0923668
-2.0477e-09
0.0923668
8.63853e-09
0.0923668
4.03203e-09
0.0923668
4.78961e-10
0.0923668
-2.79382e-09
0.0923667
-4.44604e-09
0.0923667
2.45614e-08
0.0923666
6.69459e-09
0.0923665
-2.80484e-09
0.0923664
7.01718e-09
0.0923663
9.34975e-09
0.0923662
4.91239e-09
0.0923661
-1.35486e-09
0.092366
-4.53737e-09
0.0923659
-1.27544e-08
-1.94942e-08
0.0923669
1.9312e-08
0.0923669
-1.53502e-08
0.0923669
-2.38515e-10
0.0923668
8.55612e-09
0.0923668
1.63589e-08
0.0923668
-6.8732e-09
0.0923668
-6.12911e-09
0.0923668
-8.19425e-09
0.0923668
1.15574e-08
0.0923668
1.18501e-08
0.0923668
-3.12838e-09
0.0923668
-9.50947e-09
0.0923668
-4.77802e-09
0.0923668
-1.05675e-08
0.0923667
1.77615e-09
0.0923667
3.07149e-08
0.0923666
7.91768e-09
0.0923665
-8.347e-09
0.0923664
-1.43118e-09
0.0923663
2.36595e-08
0.0923662
-5.00365e-10
0.0923661
6.38743e-09
0.092366
-4.66205e-09
0.0923659
-1.33688e-08
-3.78738e-08
0.0923669
2.37637e-08
0.0923669
-9.13185e-09
0.0923669
1.27043e-08
0.0923669
9.13349e-09
0.0923669
-3.10919e-09
0.0923668
-2.36502e-10
0.0923668
-1.41267e-08
0.0923668
-1.66176e-08
0.0923668
2.28366e-09
0.0923668
1.17417e-08
0.0923668
-1.2325e-08
0.0923668
-1.38938e-08
0.0923668
7.51147e-09
0.0923668
1.87704e-10
0.0923667
5.73797e-09
0.0923667
2.33882e-08
0.0923666
-6.33663e-09
0.0923665
-1.68224e-08
0.0923664
9.06691e-09
0.0923663
2.03892e-08
0.0923662
3.80931e-09
0.0923661
-3.53071e-09
0.092366
1.01102e-09
0.0923659
-1.15638e-08
-2.14903e-08
0.0923669
-6.33979e-09
0.0923669
5.94161e-10
0.0923669
1.84371e-08
0.0923669
9.58907e-09
0.0923669
8.05466e-09
0.0923668
1.63969e-08
0.0923668
-1.43606e-08
0.0923668
-2.75623e-08
0.0923668
-1.67125e-08
0.0923669
-1.15061e-08
0.0923668
-8.32363e-10
0.0923668
-1.33638e-08
0.0923668
1.2918e-08
0.0923668
-8.59412e-10
0.0923667
1.75132e-08
0.0923667
9.37777e-09
0.0923666
-8.04609e-09
0.0923665
-6.41845e-09
0.0923664
2.03301e-08
0.0923663
7.08746e-09
0.0923663
-1.13534e-08
0.0923662
-1.75853e-08
0.0923661
3.24639e-10
0.092366
-1.3076e-08
-1.38984e-09
0.0923669
0.0923669
0.0923669
0.0923669
0.0923669
0.0923669
0.0923668
0.0923668
0.0923668
0.0923668
0.0923668
0.0923668
0.0923668
0.0923667
0.0923667
0.0923667
0.0923666
0.0923665
0.0923664
0.0923664
0.0923662
0.0923661
0.0923661
0.092366
0.0232702
2.12133e-09
0.0232702
1.11962e-09
0.0232702
1.79319e-09
0.0232702
-4.93432e-10
0.0232702
8.24141e-09
0.0232702
-2.7274e-09
0.0232702
-9.47269e-10
0.0232702
-1.82436e-10
0.0232702
-2.76709e-09
0.0232702
-3.22963e-09
0.0232703
-7.45051e-09
0.0232703
-1.70617e-09
0.0232704
-5.41616e-10
0.0232705
3.76501e-09
0.0232705
1.23154e-08
0.0232706
3.69025e-09
0.0232707
-2.00558e-09
0.0232708
-2.88733e-09
0.0232708
4.59263e-09
0.0232709
6.11954e-09
0.0232709
-8.20572e-10
0.023271
2.72446e-09
0.023271
8.26161e-11
0.023271
-5.50006e-09
4.03147e-09
0.0232702
-9.73437e-10
0.0232702
2.17897e-09
0.0232702
-1.86054e-10
0.0232702
-9.14287e-10
0.0232702
-1.39919e-09
0.0232702
-3.11884e-09
0.0232702
3.71536e-09
0.0232702
7.81673e-10
0.0232702
3.70815e-09
0.0232702
6.26156e-10
0.0232703
-1.89113e-09
0.0232703
2.81917e-09
0.0232704
4.11656e-09
0.0232704
4.33591e-09
0.0232705
2.75596e-09
0.0232706
-1.47444e-09
0.0232707
1.13201e-10
0.0232708
3.62867e-09
0.0232708
1.06563e-09
0.0232709
2.07493e-09
0.0232709
-1.96955e-09
0.023271
-5.76457e-09
0.023271
-3.3707e-09
0.023271
-6.78773e-10
2.27849e-09
0.0232702
-3.30918e-10
0.0232702
2.95671e-09
0.0232702
4.74764e-09
0.0232702
-2.45148e-09
0.0232702
-4.42757e-09
0.0232702
5.00521e-09
0.0232702
3.43697e-09
0.0232702
-1.12092e-09
0.0232702
-1.86522e-09
0.0232702
2.953e-09
0.0232703
9.65201e-09
0.0232703
7.54385e-09
0.0232704
1.58834e-09
0.0232705
4.81039e-10
0.0232705
-2.47942e-09
0.0232706
-5.21663e-09
0.0232707
-2.33696e-09
0.0232708
-1.86455e-09
0.0232708
-3.21474e-09
0.0232709
-2.02515e-09
0.023271
-4.422e-09
0.023271
4.77156e-09
0.023271
5.77122e-09
0.023271
6.9499e-09
4.47498e-09
0.0232702
-5.31585e-09
0.0232702
-3.00533e-09
0.0232702
1.03236e-09
0.0232702
1.38804e-09
0.0232702
8.59745e-09
0.0232702
6.9461e-09
0.0232702
4.73351e-09
0.0232702
-3.66571e-09
0.0232702
-6.16655e-09
0.0232702
3.60728e-09
0.0232703
3.43192e-09
0.0232703
5.41156e-10
0.0232704
2.56018e-09
0.0232705
3.58326e-10
0.0232706
-5.44565e-09
0.0232706
-6.17707e-09
0.0232707
2.01274e-09
0.0232708
1.01618e-08
0.0232708
4.22194e-09
0.0232709
3.07266e-09
0.0232709
3.89461e-10
0.023271
-2.81646e-09
0.023271
4.95742e-10
0.023271
3.25688e-09
-3.11033e-10
0.0232702
-1.34093e-08
0.0232702
-4.3224e-09
0.0232702
1.27688e-08
0.0232702
8.58722e-09
0.0232702
1.09098e-08
0.0232702
-4.37202e-10
0.0232702
-2.00194e-09
0.0232702
-5.17765e-09
0.0232702
4.36995e-09
0.0232702
5.722e-09
0.0232703
-1.23762e-09
0.0232703
-1.38028e-09
0.0232704
2.07216e-09
0.0232705
-5.96271e-09
0.0232706
-7.22205e-09
0.0232706
8.89255e-10
0.0232707
5.28218e-09
0.0232708
3.63535e-09
0.0232708
-5.03668e-09
0.0232709
-5.08575e-09
0.023271
-5.55818e-13
0.023271
-3.06905e-09
0.023271
-3.34117e-09
0.0232711
-5.37891e-09
-2.94642e-09
0.0232702
-4.59732e-09
0.0232702
-8.22874e-09
0.0232702
3.55252e-09
0.0232702
1.08141e-08
0.0232702
2.07031e-09
0.0232702
-6.66731e-09
0.0232702
1.91071e-09
0.0232702
-9.70419e-10
0.0232702
9.33385e-09
0.0232702
3.40739e-09
0.0232703
-6.47693e-09
0.0232703
-1.87843e-09
0.0232704
-4.18141e-09
0.0232705
2.35677e-09
0.0232705
1.35142e-08
0.0232706
7.28402e-09
0.0232707
-3.20279e-09
0.0232708
-8.59144e-09
0.0232708
-1.05184e-08
0.0232709
-3.64084e-09
0.023271
-5.3022e-09
0.023271
-1.03474e-09
0.023271
8.15118e-09
0.023271
4.38557e-09
3.17262e-09
0.0232702
-1.00768e-09
0.0232702
-1.37696e-08
0.0232702
-5.39043e-09
0.0232702
1.66084e-08
0.0232702
-1.47736e-10
0.0232702
-9.31084e-09
0.0232702
2.72507e-09
0.0232702
-8.77007e-10
0.0232702
1.28046e-08
0.0232702
-1.9351e-09
0.0232703
7.20952e-10
0.0232703
8.65199e-09
0.0232704
4.67694e-09
0.0232704
-6.65751e-10
0.0232705
2.37676e-09
0.0232706
-6.51454e-09
0.0232707
-5.66621e-09
0.0232708
4.68109e-09
0.0232708
-7.90095e-10
0.0232709
-7.75298e-09
0.0232709
-4.12653e-09
0.023271
2.28521e-09
0.023271
-1.74736e-09
0.023271
9.89982e-10
2.11995e-09
0.0232702
-3.06098e-09
0.0232702
-2.17147e-08
0.0232702
1.52509e-12
0.0232702
7.44769e-09
0.0232702
-4.13726e-09
0.0232702
2.12134e-09
0.0232702
9.44452e-09
0.0232702
4.55924e-09
0.0232702
1.33716e-08
0.0232702
-9.12993e-09
0.0232703
-9.79422e-10
0.0232703
6.01246e-09
0.0232704
5.91331e-09
0.0232705
3.87084e-09
0.0232705
1.10405e-08
0.0232706
-7.28985e-09
0.0232707
5.21438e-10
0.0232708
2.78238e-09
0.0232708
-7.68656e-09
0.0232709
-9.96124e-09
0.0232709
-2.42179e-09
0.023271
2.5485e-09
0.023271
1.56994e-09
0.023271
7.33703e-09
-3.06171e-10
0.0232702
-6.10253e-09
0.0232702
-9.67935e-09
0.0232702
-3.74073e-09
0.0232702
4.74715e-09
0.0232701
4.08078e-09
0.0232701
7.05643e-09
0.0232701
8.53436e-09
0.0232702
-1.72873e-09
0.0232702
7.65069e-09
0.0232702
-1.6251e-09
0.0232703
-2.73517e-09
0.0232703
2.25275e-09
0.0232704
-2.59667e-09
0.0232705
-7.12916e-09
0.0232706
1.23343e-08
0.0232706
-6.03823e-09
0.0232707
1.10242e-08
0.0232708
8.60712e-09
0.0232708
-1.31651e-08
0.0232709
-1.42299e-08
0.0232709
3.26971e-09
0.023271
1.01565e-08
0.023271
-7.19563e-09
0.023271
6.98754e-09
-7.77094e-09
0.0232702
-4.52235e-09
0.0232702
-1.51555e-09
0.0232702
-1.80206e-08
0.0232702
8.48066e-09
0.0232702
6.85531e-09
0.0232702
2.34714e-09
0.0232702
9.53779e-09
0.0232702
-2.14825e-10
0.0232702
3.91821e-10
0.0232702
6.27398e-09
0.0232703
-1.07282e-08
0.0232703
1.03572e-08
0.0232704
-5.59463e-09
0.0232705
-1.53824e-08
0.0232705
2.36642e-08
0.0232706
5.13124e-09
0.0232707
3.50898e-10
0.0232708
-1.09014e-09
0.0232708
-3.92005e-09
0.0232709
-2.82141e-08
0.023271
-6.76688e-09
0.023271
2.02741e-08
0.023271
-6.19566e-09
0.023271
1.53314e-08
-3.80604e-09
0.0232702
-2.73641e-09
0.0232702
-1.99761e-08
0.0232702
-1.08529e-08
0.0232702
1.007e-08
0.0232702
4.96447e-09
0.0232702
1.11179e-08
0.0232702
-7.9997e-09
0.0232702
1.01007e-08
0.0232702
-6.8341e-09
0.0232703
8.56233e-10
0.0232703
-1.01203e-08
0.0232704
5.82264e-09
0.0232704
3.48023e-09
0.0232705
-2.40799e-10
0.0232706
1.86627e-08
0.0232706
4.14491e-09
0.0232707
-5.60239e-10
0.0232708
-4.66631e-09
0.0232708
4.57575e-09
0.0232709
-1.42136e-08
0.0232709
-5.19167e-09
0.023271
1.79741e-08
0.023271
-6.00568e-09
0.023271
8.17629e-09
-9.67943e-09
0.0232702
1.09673e-08
0.0232702
-2.21045e-08
0.0232702
-4.81244e-09
0.0232702
-7.2823e-09
0.0232702
-5.17915e-09
0.0232702
1.66362e-08
0.0232702
-9.37456e-09
0.0232702
1.45124e-08
0.0232702
-4.76319e-09
0.0232702
-1.06605e-08
0.0232703
1.88455e-09
0.0232703
-1.71667e-09
0.0232704
6.67787e-09
0.0232705
-5.80817e-09
0.0232705
2.26154e-08
0.0232706
6.79691e-09
0.0232707
-4.3916e-10
0.0232708
5.07664e-09
0.0232708
-1.65271e-09
0.0232709
-2.88922e-09
0.0232709
1.64545e-09
0.023271
8.40914e-09
0.023271
8.53987e-09
0.023271
1.39456e-08
-1.24073e-08
0.0232702
1.39063e-08
0.0232702
-1.84205e-08
0.0232702
-5.38411e-09
0.0232702
-5.32362e-09
0.0232702
-8.34608e-09
0.0232702
7.22108e-09
0.0232702
2.8201e-09
0.0232702
3.69094e-09
0.0232702
-5.24837e-09
0.0232702
1.10295e-08
0.0232702
1.07634e-08
0.0232703
-1.45657e-08
0.0232704
5.90966e-09
0.0232705
-1.75246e-08
0.0232705
2.20917e-08
0.0232706
1.2195e-08
0.0232707
2.003e-10
0.0232708
6.72672e-09
0.0232708
-7.2618e-09
0.0232709
8.34371e-09
0.0232709
9.81731e-09
0.023271
-1.5533e-08
0.023271
7.16539e-09
0.023271
9.85589e-09
5.57753e-09
0.0232702
-4.54785e-10
0.0232702
-1.34391e-08
0.0232702
-7.52989e-09
0.0232702
-2.94447e-09
0.0232702
-5.68585e-09
0.0232702
1.26603e-08
0.0232702
4.92206e-09
0.0232702
-7.1366e-09
0.0232702
-3.79561e-09
0.0232702
8.43049e-09
0.0232703
1.62612e-08
0.0232703
-5.50474e-09
0.0232704
1.05698e-08
0.0232704
-7.12125e-09
0.0232705
1.3461e-08
0.0232706
5.61743e-09
0.0232707
6.7882e-09
0.0232708
-9.49454e-09
0.0232709
-1.59607e-08
0.0232709
1.21834e-08
0.0232709
1.59952e-08
0.023271
-1.47512e-08
0.023271
6.81716e-09
0.0232711
-2.84889e-09
1.01547e-08
0.0232702
-5.92303e-09
0.0232702
-6.04213e-09
0.0232702
-1.53576e-08
0.0232702
-3.07186e-09
0.0232702
2.38939e-10
0.0232702
5.49408e-09
0.0232702
3.37699e-09
0.0232702
-2.71534e-09
0.0232702
3.2926e-09
0.0232702
1.00527e-08
0.0232703
1.12904e-08
0.0232703
-1.73841e-09
0.0232704
-4.76388e-10
0.0232705
-1.08528e-09
0.0232705
1.2189e-08
0.0232706
-1.27079e-09
0.0232707
6.42365e-09
0.0232708
-8.80875e-09
0.0232708
3.9397e-09
0.0232709
3.49246e-09
0.023271
5.4054e-09
0.023271
-6.23393e-09
0.023271
1.22374e-08
0.023271
8.65888e-09
1.51399e-08
0.0232702
-1.518e-08
0.0232702
-2.29228e-09
0.0232702
-1.35933e-08
0.0232702
3.48433e-10
0.0232702
7.06337e-09
0.0232702
3.86706e-09
0.0232702
4.25689e-09
0.0232702
-8.90981e-09
0.0232702
-1.16522e-08
0.0232702
2.58864e-08
0.0232703
2.09502e-08
0.0232703
5.79873e-09
0.0232704
-1.21304e-08
0.0232705
-2.99203e-09
0.0232706
2.95797e-09
0.0232706
-2.17046e-09
0.0232707
1.12922e-08
0.0232708
7.58665e-09
0.0232708
1.04918e-08
0.0232709
-6.78107e-09
0.0232709
6.60737e-09
0.023271
-1.41017e-08
0.023271
6.25836e-09
0.0232711
6.39011e-10
-2.23009e-09
0.0232702
-1.48106e-08
0.0232702
-4.23436e-09
0.0232702
-4.80643e-09
0.0232702
1.5996e-09
0.0232702
1.61983e-08
0.0232701
8.57702e-09
0.0232701
9.86506e-09
0.0232702
-9.68892e-09
0.0232702
-4.98219e-09
0.0232702
6.33282e-09
0.0232703
1.65667e-08
0.0232703
-3.45763e-09
0.0232704
-6.71278e-09
0.0232705
-2.56696e-09
0.0232705
1.12685e-08
0.0232706
-1.06588e-08
0.0232707
8.56106e-09
0.0232708
5.77329e-09
0.0232708
7.23662e-09
0.0232709
-1.02616e-08
0.023271
-3.27208e-09
0.023271
3.74413e-09
0.023271
-2.56469e-09
0.0232711
-7.16333e-09
6.76299e-09
0.0232702
-1.3983e-08
0.0232702
3.34067e-09
0.0232702
1.57445e-09
0.0232702
1.95238e-09
0.0232701
2.51155e-08
0.0232702
-4.56696e-09
0.0232702
-6.25561e-09
0.0232702
-1.29039e-08
0.0232702
6.11419e-09
0.0232702
6.63905e-09
0.0232703
9.17142e-09
0.0232703
-8.89694e-09
0.0232704
6.81092e-09
0.0232705
5.04154e-09
0.0232705
1.31712e-08
0.0232706
-8.27383e-09
0.0232707
1.40921e-08
0.0232708
-2.26052e-09
0.0232708
-9.17412e-09
0.0232709
7.58311e-09
0.0232709
-7.97555e-09
0.023271
1.03285e-08
0.023271
-1.5796e-08
0.023271
-1.12867e-08
1.60525e-08
0.0232702
-1.31845e-09
0.0232702
2.6476e-09
0.0232702
-6.36795e-09
0.0232702
-6.74358e-09
0.0232702
1.55129e-08
0.0232702
1.78829e-09
0.0232702
1.08463e-08
0.0232702
-1.97698e-08
0.0232702
2.53857e-09
0.0232702
1.30156e-08
0.0232703
-8.72187e-09
0.0232703
-2.62246e-10
0.0232704
-2.30835e-09
0.0232705
6.54787e-10
0.0232706
1.21876e-08
0.0232706
3.02402e-09
0.0232707
-1.80173e-09
0.0232708
1.19876e-09
0.0232709
-1.79324e-08
0.0232709
1.04432e-08
0.023271
-2.79981e-09
0.023271
9.36601e-09
0.023271
-2.93983e-09
0.023271
-7.07317e-09
5.82808e-09
0.0232702
-8.07857e-10
0.0232702
8.11967e-10
0.0232702
5.83749e-09
0.0232702
6.96393e-09
0.0232702
7.09399e-09
0.0232702
-3.02045e-09
0.0232702
1.36453e-09
0.0232702
-1.81113e-08
0.0232702
-6.14014e-09
0.0232702
2.356e-08
0.0232703
1.05107e-09
0.0232703
8.89628e-09
0.0232704
-1.40921e-08
0.0232705
-1.97011e-08
0.0232706
7.0729e-09
0.0232706
1.76296e-08
0.0232707
-1.52642e-10
0.0232708
6.33149e-09
0.0232708
-2.64166e-08
0.0232709
8.18428e-09
0.0232709
6.32952e-09
0.023271
4.45527e-09
0.023271
-9.85607e-09
0.023271
-4.68447e-09
4.47787e-09
0.0232702
3.30317e-09
0.0232702
-7.7651e-09
0.0232702
-4.60745e-10
0.0232702
7.28221e-09
0.0232702
-4.78772e-09
0.0232702
4.1807e-09
0.0232702
1.08096e-08
0.0232702
-2.29713e-09
0.0232702
-1.54874e-08
0.0232702
2.37555e-08
0.0232703
-3.83744e-09
0.0232703
1.03174e-08
0.0232704
3.50449e-09
0.0232705
-1.99641e-08
0.0232705
1.8607e-09
0.0232706
1.05892e-08
0.0232707
-9.06497e-09
0.0232708
3.73091e-09
0.0232708
-2.40953e-08
0.0232709
1.16806e-08
0.023271
2.32407e-09
0.023271
1.51813e-09
0.023271
-1.37482e-08
0.023271
1.74564e-09
1.96254e-09
0.0232702
2.05891e-10
0.0232702
-5.07268e-09
0.0232702
4.40525e-09
0.0232702
9.34604e-09
0.0232701
-2.06981e-09
0.0232702
-8.48369e-09
0.0232702
7.33584e-09
0.0232702
1.41452e-09
0.0232702
-9.18078e-09
0.0232702
1.44803e-08
0.0232703
-1.11189e-08
0.0232703
2.12711e-09
0.0232704
1.44536e-08
0.0232705
-2.16317e-09
0.0232705
5.63343e-09
0.0232706
1.23857e-08
0.0232707
-3.13888e-09
0.0232708
-7.94534e-09
0.0232708
-1.68115e-08
0.0232709
5.87754e-09
0.0232709
-7.01434e-09
0.023271
-8.10684e-09
0.023271
5.05233e-11
0.023271
4.57219e-09
5.96792e-09
0.0232702
-4.74557e-09
0.0232702
-1.44585e-09
0.0232702
1.56035e-08
0.0232702
4.64721e-09
0.0232701
9.09799e-09
0.0232702
-1.16811e-08
0.0232702
-5.71834e-09
0.0232702
3.28992e-09
0.0232702
7.61692e-09
0.0232702
-5.94444e-09
0.0232703
-8.24842e-09
0.0232703
-9.56728e-09
0.0232704
3.57952e-09
0.0232705
4.09402e-09
0.0232706
8.47618e-09
0.0232706
6.29476e-09
0.0232707
1.41471e-09
0.0232708
-1.06242e-08
0.0232708
-2.12608e-09
0.0232709
-6.67627e-09
0.023271
-2.46994e-09
0.023271
7.77759e-09
0.023271
2.96787e-09
0.023271
1.1384e-09
1.64673e-09
0.0232702
7.84531e-09
0.0232702
2.08733e-09
0.0232702
1.51791e-08
0.0232702
-4.43694e-09
0.0232702
2.5742e-09
0.0232702
-1.47257e-08
0.0232702
-2.34916e-10
0.0232702
6.24838e-09
0.0232702
1.6121e-08
0.0232702
-1.00083e-08
0.0232703
-1.13532e-09
0.0232703
-4.32834e-09
0.0232704
7.10792e-10
0.0232705
-7.15016e-09
0.0232705
8.08492e-09
0.0232706
1.32744e-09
0.0232707
5.37936e-09
0.0232708
-4.4772e-09
0.0232708
1.43931e-09
0.0232709
-7.6577e-09
0.0232709
4.62277e-10
0.023271
1.05723e-08
0.023271
-9.19748e-09
0.023271
4.37038e-09
-5.45819e-09
0.0232702
1.52671e-08
0.0232702
6.18937e-09
0.0232702
4.08416e-09
0.0232702
-9.85462e-09
0.0232702
2.7372e-09
0.0232702
-7.02177e-09
0.0232702
3.40422e-09
0.0232702
1.25476e-08
0.0232702
1.12584e-08
0.0232702
-8.40303e-09
0.0232703
-1.38724e-08
0.0232703
-6.12972e-09
0.0232704
5.9986e-09
0.0232705
-5.61051e-09
0.0232705
3.6894e-09
0.0232706
-5.45722e-09
0.0232707
1.26361e-08
0.0232708
1.46564e-08
0.0232708
6.86409e-10
0.0232709
-1.46666e-09
0.0232709
-4.33618e-09
0.023271
-4.16479e-09
0.023271
-1.16761e-08
0.023271
1.62123e-08
6.04154e-09
0.0232702
3.07032e-09
0.0232702
3.75503e-09
0.0232702
4.51363e-09
0.0232702
-6.7363e-09
0.0232702
2.05858e-08
0.0232701
6.8851e-09
0.0232702
-7.684e-09
0.0232702
5.86971e-09
0.0232702
-8.31465e-09
0.0232702
7.42251e-09
0.0232703
-6.45226e-09
0.0232703
-1.18502e-08
0.0232704
-5.25537e-10
0.0232705
-9.00949e-09
0.0232706
5.32029e-09
0.0232706
-7.55327e-09
0.0232707
1.30587e-08
0.0232708
8.9122e-09
0.0232709
-1.85125e-10
0.0232709
2.0582e-08
0.0232709
-1.3197e-09
0.023271
-4.29082e-09
0.023271
-1.43836e-08
0.0232711
-6.11477e-09
-4.89194e-09
0.0232702
0.0232702
0.0232702
0.0232702
0.0232702
0.0232702
0.0232702
0.0232702
0.0232702
0.0232702
0.0232703
0.0232703
0.0232704
0.0232705
0.0232705
0.0232706
0.0232707
0.0232708
0.0232708
0.0232709
0.023271
0.023271
0.023271
0.023271
)
;

boundaryField
{
    outflow
    {
        type            calculated;
        value           nonuniform List<scalar> 
27
(
0.023271
0.023271
0.023271
0.023271
0.0232711
0.023271
0.023271
0.023271
0.023271
0.023271
0.023271
0.023271
0.023271
0.0232711
0.023271
0.0232711
0.0232711
0.023271
0.0232711
0.0232711
0.0232711
0.023271
0.023271
0.023271
0.023271
0.0232711
0.023271
)
;
    }
    inflow
    {
        type            calculated;
        value           nonuniform List<scalar> 
17
(
-0.0923669
-0.0923669
-0.0923669
-0.0923669
-0.0923669
-0.0923669
-0.0923669
-0.0923669
-0.0923669
-0.0923669
-0.0923669
-0.0923669
-0.0923669
-0.0923669
-0.0923669
-0.0923669
-0.0923669
)
;
    }
    upstreamPerio1
    {
        type            cyclicGgi;
        value           nonuniform List<scalar> 
25
(
2.85651e-09
-8.10216e-09
-1.08557e-08
9.32297e-09
-1.50283e-08
-4.75331e-09
4.71968e-10
-7.09006e-09
8.24153e-09
-1.17369e-09
8.90058e-09
9.19038e-09
9.62676e-09
9.14592e-09
-9.99113e-09
-5.28346e-09
-1.05515e-08
2.59075e-09
2.63435e-09
-1.18763e-08
2.89573e-09
8.68087e-10
1.12094e-08
3.08119e-09
-8.36418e-09
)
;
    }
    upstreamPerio2
    {
        type            cyclicGgi;
        value           nonuniform List<scalar> 
25
(
-2.54816e-09
8.08609e-09
1.08399e-08
-9.69106e-09
1.50132e-08
5.07875e-09
-4.86618e-10
7.07566e-09
-8.21844e-09
1.11833e-09
-8.91426e-09
-9.20384e-09
-9.64e-09
-9.15896e-09
1.02325e-08
5.02082e-09
1.05391e-08
-2.60302e-09
-2.64643e-09
1.21004e-08
-2.90747e-09
-8.79662e-10
-1.1451e-08
-3.09245e-09
8.57318e-09
)
;
    }
    upstreamMixingPlanePatch
    {
        type            mixingPlane;
        value           nonuniform List<scalar> 
27
(
-0.0232703
-0.0232703
-0.0232703
-0.0232703
-0.0232703
-0.0232703
-0.0232703
-0.0232703
-0.0232703
-0.0232703
-0.0232703
-0.0232703
-0.0232703
-0.0232703
-0.0232703
-0.0232703
-0.0232703
-0.0232703
-0.0232703
-0.0232703
-0.0232703
-0.0232703
-0.0232703
-0.0232703
-0.0232703
-0.0232703
-0.0232703
)
;
    }
    downstreamMixingPlanePatch
    {
        type            mixingPlane;
        value           nonuniform List<scalar> 
17
(
0.0923658
0.0923659
0.0923658
0.0923658
0.0923658
0.0923658
0.0923658
0.0923658
0.0923658
0.0923658
0.0923659
0.0923658
0.0923658
0.0923658
0.0923658
0.0923659
0.0923659
)
;
    }
    downstreamWall
    {
        type            symmetryPlane;
    }
    upstreamWall
    {
        type            symmetryPlane;
    }
    downstreamPerio1
    {
        type            cyclicGgi;
        value           nonuniform List<scalar> 
25
(
3.91778e-09
-1.52544e-08
-1.26136e-08
9.06271e-09
-3.31144e-10
-1.75412e-08
3.36073e-10
-9.52848e-10
2.52741e-09
2.03371e-08
5.87188e-09
1.82417e-08
-1.24122e-08
6.70235e-09
-2.65511e-09
9.194e-09
1.29019e-10
-1.48543e-09
-4.82516e-09
6.54503e-09
1.38589e-08
1.42752e-08
1.99865e-08
8.69801e-09
-3.55191e-09
)
;
    }
    downstreamPerio2
    {
        type            cyclicGgi;
        value           nonuniform List<scalar> 
25
(
-3.91778e-09
1.52544e-08
1.26136e-08
-9.06271e-09
3.31144e-10
1.75412e-08
-3.36073e-10
9.52848e-10
-2.52741e-09
-2.03371e-08
-5.87188e-09
-1.82417e-08
1.24122e-08
-6.70235e-09
2.65511e-09
-9.194e-09
-1.29019e-10
1.48543e-09
4.82516e-09
-6.54503e-09
-1.38589e-08
-1.42752e-08
-1.99865e-08
-8.69801e-09
3.55191e-09
)
;
    }
}


// ************************************************************************* //
