/*--------------------------------*- C++ -*----------------------------------*\
| =========                 |                                                 |
| \\      /  F ield         | foam-extend: Open Source CFD                    |
|  \\    /   O peration     | Version:     3.1                                |
|   \\  /    A nd           | Web:         http://www.extend-project.de       |
|    \\/     M anipulation  |                                                 |
\*---------------------------------------------------------------------------*/
FoamFile
{
    version     2.0;
    format      ascii;
    class       volVectorField;
    location    "0";
    object      U;
}
// * * * * * * * * * * * * * * * * * * * * * * * * * * * * * * * * * * * * * //

dimensions      [0 1 -1 0 0 0 0];

internalField   nonuniform List<vector>
1100
(
(4.50053 8.6999 -2.58726e-18)
(4.33085 8.37188 5.73386e-18)
(4.17349 8.0677 -3.29931e-18)
(4.02717 7.78485 0)
(3.89076 7.52115 -3.35131e-18)
(3.76329 7.27474 3.43885e-18)
(3.64391 7.04396 0)
(3.53186 6.82737 0)
(3.4265 6.62371 -9.43806e-19)
(3.32725 6.43184 -2.10051e-18)
(3.23358 6.25077 2.17599e-18)
(3.14505 6.07962 0)
(3.06123 5.91759 7.53253e-19)
(2.98176 5.76398 -7.1464e-19)
(2.90631 5.61813 6.78924e-19)
(2.83459 5.47949 -2.60264e-18)
(2.76632 5.34752 5.75365e-18)
(2.70126 5.22176 -2.53068e-18)
(2.63919 5.10177 2.1023e-18)
(2.57991 4.98718 -2.20347e-18)
(2.52324 4.87762 5.11709e-19)
(2.469 4.77277 -1.23249e-18)
(2.41705 4.67234 1.34096e-18)
(2.36723 4.57604 0)
(2.31943 4.48364 0)
(3.67861 9.07804 0)
(3.53992 8.73577 -2.30704e-18)
(3.4113 8.41836 2.34984e-18)
(3.2917 8.12321 1.30385e-18)
(3.1802 7.84806 3.35131e-18)
(3.07601 7.59094 -6.47293e-18)
(2.97843 7.35013 2.05264e-18)
(2.88684 7.12413 0)
(2.80073 6.91161 9.43802e-19)
(2.7196 6.7114 2.99041e-18)
(2.64304 6.52246 -2.17599e-18)
(2.57067 6.34387 -7.95079e-19)
(2.50216 6.1748 -7.5325e-19)
(2.43721 6.01451 1.06166e-26)
(2.37554 5.86233 -6.78927e-19)
(2.31692 5.71765 3.89428e-18)
(2.26111 5.57995 -1.52921e-18)
(2.20794 5.44872 -2.53065e-18)
(2.15721 5.32353 0)
(2.10875 5.20395 -2.49922e-18)
(2.06243 5.08963 2.06086e-18)
(2.01809 4.98023 0)
(1.97563 4.87542 -6.66639e-27)
(1.93491 4.77494 0)
(1.89583 4.67852 4.32368e-19)
(2.8253 9.37874 -2.58725e-18)
(2.71878 9.02512 2.62778e-18)
(2.62 8.69721 -7.00184e-19)
(2.52815 8.39228 -1.30387e-18)
(2.44251 8.10802 0)
(2.36248 7.84238 0)
(2.28754 7.59359 1.91156e-18)
(2.21719 7.3601 -3.93006e-18)
(2.15106 7.14054 2.59155e-18)
(2.08875 6.9337 0)
(2.02995 6.73851 0)
(1.97437 6.554 2.1728e-18)
(1.92175 6.37933 -1.84474e-18)
(1.87186 6.21373 2.2285e-18)
(1.82449 6.0565 -1.57745e-18)
(1.77947 5.90704 -2.27006e-18)
(1.73661 5.76477 1.97447e-18)
(1.69577 5.6292 0)
(1.65681 5.49985 0)
(1.61959 5.37632 5.34953e-19)
(1.58401 5.25821 -7.67565e-19)
(1.54996 5.14518 0)
(1.51735 5.03691 4.69537e-19)
(1.48608 4.9331 1.51869e-18)
(1.45607 4.83349 -2.24766e-18)
(1.94789 9.59941 1.29362e-18)
(1.87445 9.23748 -1.69089e-18)
(1.80635 8.90185 2.76605e-18)
(1.74302 8.58975 -3.96694e-18)
(1.68397 8.2988 1.9013e-18)
(1.6288 8.02691 0)
(1.57713 7.77226 5.33707e-19)
(1.52863 7.53328 -1.25516e-18)
(1.48304 7.30856 1.29578e-18)
(1.44008 7.09685 0)
(1.39954 6.89706 0)
(1.36122 6.70822 1.28517e-18)
(1.32494 6.52944 -9.22369e-19)
(1.29054 6.35994 0)
(1.25789 6.19901 0)
(1.22685 6.04603 3.22912e-19)
(1.1973 5.90042 0)
(1.16914 5.76165 1.1268e-18)
(1.14228 5.62926 -2.23093e-18)
(1.11663 5.50282 1.10172e-18)
(1.09209 5.38194 2.55854e-19)
(1.06861 5.26625 0)
(1.04613 5.15543 0)
(1.02457 5.04918 0)
(1.00388 4.94722 9.30582e-19)
(1.05386 9.73819 -1.82029e-19)
(1.01413 9.37103 -9.36886e-19)
(0.97728 9.03054 1.03293e-18)
(0.943016 8.71393 -1.26297e-19)
(0.911073 8.41877 -1.78848e-18)
(0.881221 8.14295 8.59709e-19)
(0.85327 7.88463 0)
(0.827032 7.64219 6.2758e-19)
(0.802361 7.41422 -6.47887e-19)
(0.779122 7.19945 1.11238e-19)
(0.757188 6.99677 -1.44658e-18)
(0.736455 6.8052 3.37558e-18)
(0.716826 6.62383 -3.57651e-18)
(0.698216 6.45188 1.70411e-18)
(0.68055 6.28863 8.48651e-20)
(0.663754 6.13344 -5.69934e-19)
(0.647769 5.98572 1.28464e-18)
(0.632534 5.84495 -1.19607e-18)
(0.618002 5.71065 1.11546e-18)
(0.604123 5.58238 -1.53301e-18)
(0.590849 5.45975 6.34872e-19)
(0.578147 5.34238 5.4381e-19)
(0.565983 5.22996 -3.45381e-19)
(0.554319 5.12217 1.18446e-18)
(0.543125 5.01874 -7.9957e-19)
(0.150836 9.79389 0)
(0.145151 9.42462 -9.42508e-20)
(0.139877 9.08219 -8.75235e-20)
(0.134972 8.76377 1.16073e-19)
(0.1304 8.46692 -1.94893e-19)
(0.126128 8.18952 -7.11579e-20)
(0.122128 7.92972 -6.67133e-20)
(0.118373 7.6859 1.57757e-20)
(0.114841 7.45662 -8.09861e-20)
(0.111515 7.24062 -1.66857e-19)
(0.108376 7.03679 0)
(0.105408 6.84412 -1.49078e-19)
(0.102597 6.66171 9.41567e-20)
(0.0999348 6.48878 -4.46651e-20)
(0.097406 6.32459 -1.27298e-19)
(0.0950011 6.16851 -2.02424e-19)
(0.0927152 6.01995 4.65195e-20)
(0.090533 5.87838 0)
(0.0884524 5.74331 -3.49895e-20)
(0.0864665 5.61431 -3.3435e-20)
(0.0845662 5.49097 -9.59454e-20)
(0.0827481 5.37294 -6.12426e-20)
(0.0810074 5.25987 -8.80376e-20)
(0.0793386 5.15147 6.67698e-20)
(0.0777371 5.04744 -7.29231e-20)
(-0.753476 9.76603 9.7751e-19)
(-0.725064 9.39781 -5.62693e-19)
(-0.698722 9.05635 -4.28945e-19)
(-0.674224 8.73884 6.31484e-20)
(-0.651385 8.44283 5.51388e-19)
(-0.630041 8.16622 8.29679e-19)
(-0.610056 7.90716 -7.13302e-19)
(-0.591298 7.66403 -1.88018e-19)
(-0.57366 7.43541 -2.35952e-19)
(-0.557042 7.22003 -6.91984e-19)
(-0.541359 7.01677 6.18047e-20)
(-0.526538 6.82465 1.43763e-18)
(-0.512507 6.64276 -9.22371e-19)
(-0.499201 6.47032 8.01578e-19)
(-0.48657 6.3066 -1.09685e-18)
(-0.474563 6.15097 8.07879e-20)
(-0.463131 6.00283 6.80767e-19)
(-0.45224 5.86166 -3.16333e-19)
(-0.441849 5.72697 3.49894e-20)
(-0.431925 5.59833 5.24498e-19)
(-0.422436 5.47535 -2.37148e-20)
(-0.413357 5.35765 -5.19645e-20)
(-0.404658 5.24491 -7.0997e-19)
(-0.396317 5.13681 7.35893e-20)
(-0.388314 5.03308 1.55621e-20)
(-1.65136 9.65484 -1.06852e-18)
(-1.58909 9.29082 -1.15352e-18)
(-1.53136 8.95325 1.41988e-19)
(-1.47767 8.63935 1.05488e-18)
(-1.42761 8.34672 -1.67566e-18)
(-1.38084 8.07326 1.71943e-18)
(-1.33704 7.81714 0)
(-1.29592 7.57678 1.50586e-18)
(-1.25726 7.35076 -1.05982e-18)
(-1.22085 7.13783 -8.2778e-19)
(-1.18647 6.93689 1.08799e-18)
(-1.15399 6.74696 8.87634e-19)
(-1.12324 6.56714 -9.22369e-19)
(-1.09408 6.39666 7.56923e-19)
(-1.0664 6.23481 -8.7611e-20)
(-1.04008 6.08094 -7.31519e-19)
(-1.01503 5.93449 0)
(-0.991156 5.79492 0)
(-0.968381 5.66177 -1.05115e-18)
(-0.946632 5.5346 1.10173e-18)
(-0.925835 5.41302 0)
(-0.905935 5.29666 0)
(-0.88687 5.1852 -1.17383e-19)
(-0.868591 5.07833 -7.59346e-19)
(-0.851052 4.97578 7.99566e-19)
(-2.53515 9.46129 0)
(-2.43956 9.10457 2.30703e-18)
(-2.35093 8.77377 -2.34985e-18)
(-2.2685 8.46616 1.85717e-18)
(-2.19166 8.17939 -1.9013e-18)
(-2.11986 7.91141 0)
(-2.05261 7.66043 0)
(-1.98949 7.42489 0)
(-1.93014 7.2034 0)
(-1.87423 6.99474 0)
(-1.82147 6.79783 0)
(-1.7716 6.61169 0)
(-1.72439 6.43549 1.63761e-18)
(-1.67962 6.26843 -3.21793e-18)
(-1.63713 6.10982 1.57745e-18)
(-1.59672 5.95904 0)
(-1.55827 5.81552 0)
(-1.52162 5.67875 -1.12679e-18)
(-1.48665 5.54827 1.286e-19)
(-1.45327 5.42365 1.10172e-18)
(-1.42134 5.3045 9.19027e-19)
(-1.39079 5.19048 -9.65137e-19)
(-1.36152 5.08125 0)
(-1.33346 4.97653 -1.51868e-18)
(-1.30653 4.87603 1.70341e-19)
(-3.39731 9.18702 0)
(-3.26921 8.84064 0)
(-3.15044 8.51942 0)
(-3.03998 8.22073 0)
(-2.93701 7.94227 3.35131e-18)
(-2.84079 7.68207 -6.47296e-18)
(-2.75067 7.43836 3.12004e-18)
(-2.66609 7.20965 0)
(-2.58656 6.99458 -1.34945e-18)
(-2.51163 6.79197 1.48179e-18)
(-2.44092 6.60076 0)
(-2.37409 6.42003 1.77526e-18)
(-2.31082 6.24893 -1.84472e-18)
(-2.25083 6.08671 0)
(-2.19388 5.9327 1.4022e-18)
(-2.13974 5.78629 -1.46302e-18)
(-2.08821 5.64694 0)
(-2.0391 5.51413 0)
(-1.99224 5.38743 1.54247e-18)
(-1.9475 5.26642 -2.73841e-18)
(-1.90471 5.15073 1.83805e-18)
(-1.86377 5.04001 -2.42023e-18)
(-1.82455 4.93395 1.14674e-18)
(-1.78694 4.83226 -1.70046e-18)
(-1.75086 4.73468 -4.32369e-19)
(-4.23049 8.83436 -1.32277e-18)
(-4.07098 8.50128 -1.50801e-18)
(-3.92307 8.19239 0)
(-3.78553 7.90517 -1.30386e-18)
(-3.6573 7.6374 0)
(-3.53748 7.38718 3.03409e-18)
(-3.42526 7.15283 -3.12006e-18)
(-3.31994 6.9329 0)
(-3.2209 6.72609 -9.438e-19)
(-3.1276 6.53125 8.89902e-19)
(-3.03955 6.34739 0)
(-2.95633 6.17359 0)
(-2.87754 6.00906 0)
(-2.80284 5.85306 -7.14639e-19)
(-2.73192 5.70497 0)
(-2.6645 5.56418 0)
(-2.60034 5.43017 0)
(-2.53918 5.30246 0)
(-2.48083 5.18063 5.59838e-19)
(-2.42511 5.06426 5.3496e-19)
(-2.37184 4.95301 0)
(-2.32085 4.84654 2.21235e-18)
(-2.27201 4.74456 -1.34098e-18)
(-2.22519 4.64677 0)
(-2.18026 4.55294 4.32365e-19)
(-5.02758 8.40634 1.91742e-18)
(-4.83801 8.08939 -5.25557e-18)
(-4.66223 7.79547 -1.40037e-18)
(-4.49878 7.52216 1.30387e-18)
(-4.34639 7.26737 0)
(-4.20399 7.02927 0)
(-4.07063 6.80627 0)
(-3.94546 6.59699 -1.00276e-18)
(-3.82776 6.4002 -2.29327e-18)
(-3.71688 6.21481 2.37167e-18)
(-3.61225 6.03985 1.92876e-18)
(-3.51335 5.87447 -2.00125e-18)
(-3.41971 5.71791 0)
(-3.33094 5.56948 -3.02767e-18)
(-3.24665 5.42856 3.1549e-18)
(-3.16653 5.29459 0)
(-3.09027 5.16707 -6.15075e-19)
(-3.0176 5.04556 -2.25359e-18)
(-2.94826 4.92962 2.35951e-18)
(-2.88204 4.8189 -1.96427e-18)
(-2.81872 4.71304 2.57253e-18)
(-2.75814 4.61173 0)
(-2.70009 4.51468 -1.61628e-18)
(-2.64444 4.42164 1.25008e-18)
(-2.59104 4.33235 0)
(-5.78177 7.90659 -5.90262e-18)
(-5.56377 7.60849 6.12212e-18)
(-5.36162 7.33204 -4.69967e-18)
(-5.17364 7.07498 0)
(-4.9984 6.83533 0)
(-4.83464 6.61139 -1.13853e-18)
(-4.68127 6.40165 -1.06741e-18)
(-4.53733 6.20482 -5.04812e-19)
(-4.40198 6.01972 2.98295e-19)
(-4.27446 5.84535 2.37169e-18)
(-4.15413 5.68079 0)
(-4.04039 5.52525 -2.75542e-18)
(-3.93271 5.37799 3.68947e-18)
(-3.83062 5.23838 -2.31303e-18)
(-3.73369 5.10584 -3.28482e-19)
(-3.64155 4.97983 2.92604e-18)
(-3.55385 4.8599 1.23016e-18)
(-3.47027 4.74561 0)
(-3.39053 4.63656 2.1023e-18)
(-3.31438 4.53242 -4.16769e-18)
(-3.24156 4.43285 1.54914e-18)
(-3.17189 4.33757 0)
(-3.10514 4.24629 0)
(-3.04114 4.15878 1.96906e-18)
(-2.97973 4.0748 1.25845e-18)
(-6.48663 7.33939 3.2571e-18)
(-6.24206 7.06267 -4.6141e-18)
(-6.01526 6.80605 6.10006e-18)
(-5.80437 6.56743 -1.30386e-18)
(-5.60776 6.34498 3.3513e-18)
(-5.42403 6.1371 -1.16179e-18)
(-5.25196 5.94241 1.06741e-18)
(-5.09048 5.75969 -1.00275e-18)
(-4.93863 5.58787 4.58653e-18)
(-4.79557 5.42601 -8.94446e-18)
(-4.66056 5.27326 4.35198e-18)
(-4.53295 5.12888 -7.95075e-19)
(-4.41215 4.99218 3.27521e-18)
(-4.29761 4.86259 -3.40825e-18)
(-4.18887 4.73956 6.78923e-19)
(-4.0855 4.62259 0)
(-3.9871 4.51126 -6.15078e-19)
(-3.89333 4.40517 2.25359e-18)
(-3.80388 4.30395 -2.35949e-18)
(-3.71844 4.20727 0)
(-3.63675 4.11485 0)
(-3.55857 4.0264 4.8994e-19)
(-3.48369 3.94167 -4.69534e-19)
(-3.41189 3.86043 0)
(-3.34299 3.78248 4.32364e-19)
(-7.13616 6.70957 4.27408e-18)
(-6.8671 6.4566 0)
(-6.61759 6.222 0)
(-6.38558 6.00386 3.71433e-18)
(-6.16928 5.8005 -3.8026e-18)
(-5.96716 5.61046 1.89558e-18)
(-5.77786 5.43247 -2.05263e-18)
(-5.6002 5.26544 0)
(-5.43314 5.10836 5.53031e-18)
(-5.27576 4.96039 -3.85344e-18)
(-5.12724 4.82075 0)
(-4.98685 4.68875 4.34559e-18)
(-4.85395 4.56379 -2.93624e-18)
(-4.72794 4.44532 -7.14641e-19)
(-4.60831 4.33284 0)
(-4.49459 4.22591 -1.95681e-18)
(-4.38634 4.12414 2.99048e-19)
(-4.28318 4.02715 2.53068e-18)
(-4.18477 3.93461 2.66215e-18)
(-4.09078 3.84623 -4.16768e-18)
(-4.00091 3.76174 2.06083e-18)
(-3.9149 3.68088 -1.00411e-27)
(-3.83252 3.60342 4.69538e-19)
(-3.75353 3.52916 -3.03738e-18)
(-3.67773 3.45789 3.40683e-19)
(-7.72479 6.02251 -4.27407e-18)
(-7.43354 5.79544 0)
(-7.16345 5.58487 0)
(-6.9123 5.38906 1.30386e-18)
(-6.67817 5.20652 0)
(-6.45937 5.03594 -1.13854e-18)
(-6.25445 4.87618 -1.06741e-18)
(-6.06214 4.72625 -2.51033e-18)
(-5.8813 4.58526 1.64774e-18)
(-5.71094 4.45244 -8.89898e-19)
(-5.55017 4.3271 -3.85754e-18)
(-5.3982 4.20862 4.51993e-19)
(-5.25434 4.09645 2.93619e-18)
(-5.11794 3.99012 7.1464e-19)
(-4.98844 3.88916 2.80446e-18)
(-4.86534 3.79318 -3.57188e-18)
(-4.74815 3.70182 0)
(-4.63649 3.61476 -2.25363e-18)
(-4.52995 3.5317 3.902e-18)
(-4.42821 3.45238 -2.20343e-18)
(-4.33093 3.37654 1.83804e-18)
(-4.23783 3.30396 -6.97798e-19)
(-4.14865 3.23443 -1.81051e-18)
(-4.06315 3.16777 3.03737e-18)
(-3.9811 3.1038 -3.63064e-18)
(-8.24753 5.28406 3.54597e-18)
(-7.93657 5.08483 -6.76356e-18)
(-7.6482 4.90008 1.40037e-18)
(-7.38006 4.72828 3.71432e-18)
(-7.13008 4.56813 -3.80259e-18)
(-6.89648 4.41846 1.13853e-18)
(-6.6777 4.2783 0)
(-6.47237 4.14675 0)
(-6.27929 4.02304 0)
(-6.0974 3.90651 8.89902e-19)
(-5.92575 3.79654 0)
(-5.76349 3.69259 -7.95074e-19)
(-5.60989 3.59417 0)
(-5.46426 3.50087 -3.02766e-18)
(-5.326 3.41229 3.1549e-18)
(-5.19457 3.32808 3.24844e-18)
(-5.06946 3.24793 -2.71881e-18)
(-4.95024 3.17154 -2.25358e-18)
(-4.8365 3.09867 4.46183e-18)
(-4.72786 3.02907 -2.20342e-18)
(-4.624 2.96253 0)
(-4.5246 2.89885 4.89941e-19)
(-4.42939 2.83784 0)
(-4.3381 2.77936 0)
(-4.2505 2.72323 0)
(4.92562 0.488749 9.02449e-20)
(4.82998 0.479259 0)
(4.73799 0.470132 9.60249e-20)
(4.64943 0.461342 0)
(4.56413 0.452881 -2.26747e-19)
(4.48189 0.444721 1.35843e-19)
(4.40257 0.436848 4.06551e-20)
(4.32601 0.429252 -1.22113e-19)
(4.25207 0.421912 -1.54687e-19)
(4.18061 0.414825 0)
(4.11152 0.407966 0)
(4.04468 0.401332 -9.58777e-20)
(3.97997 0.394913 9.50151e-20)
(3.9173 0.388696 -6.56423e-20)
(3.85658 0.382674 0)
(3.79771 0.376832 0)
(3.74062 0.371167 0)
(3.68521 0.365669 -7.25614e-20)
(3.63142 0.360332 5.90915e-20)
(3.57918 0.355149 2.55198e-21)
(3.52842 0.350109 6.61412e-20)
(3.47908 0.345214 0)
(3.4311 0.34045 -5.0359e-20)
(3.38442 0.335821 -7.24572e-21)
(3.339 0.331315 6.23548e-20)
(4.91292 0.603232 0)
(4.81753 0.591519 0)
(4.72577 0.580252 5.78922e-20)
(4.63744 0.569405 -2.44182e-19)
(4.55235 0.55896 -1.70037e-27)
(4.47034 0.548888 -8.59271e-20)
(4.39122 0.539173 -8.29134e-20)
(4.31486 0.529797 0)
(4.2411 0.520741 1.90916e-27)
(4.16983 0.511991 0)
(4.10092 0.503529 0)
(4.03424 0.495343 -6.99828e-20)
(3.9697 0.487418 0)
(3.9072 0.479743 -1.1825e-27)
(3.84663 0.472309 -6.3622e-20)
(3.78792 0.465097 7.93946e-20)
(3.73097 0.458105 -2.14566e-19)
(3.6757 0.451321 -5.52765e-20)
(3.62205 0.444734 -1.23168e-19)
(3.56995 0.438335 8.3289e-20)
(3.51932 0.432116 1.27421e-19)
(3.4701 0.426074 -5.64131e-20)
(3.42225 0.420198 -1.71974e-19)
(3.37569 0.414482 -4.89977e-20)
(3.33038 0.40892 -1.08028e-19)
(4.89755 0.717385 1.80486e-19)
(4.80246 0.703457 0)
(4.71099 0.690059 0)
(4.62294 0.67716 9.24725e-20)
(4.53812 0.664736 2.26747e-19)
(4.45635 0.652759 -3.52127e-19)
(4.37748 0.641207 8.80828e-20)
(4.30136 0.630056 -1.55246e-19)
(4.22783 0.619286 1.93283e-19)
(4.15679 0.60888 -1.05846e-19)
(4.08809 0.598818 4.08869e-21)
(4.02162 0.589082 2.97593e-20)
(3.95729 0.579658 0)
(3.89498 0.570531 -6.56426e-20)
(3.8346 0.561687 6.36209e-20)
(3.77607 0.553111 -1.5879e-19)
(3.7193 0.544796 2.49581e-19)
(3.66421 0.536728 -9.26654e-20)
(3.61073 0.528894 0)
(3.55878 0.521285 5.47989e-20)
(3.50831 0.513891 -1.06512e-19)
(3.45925 0.506706 5.17771e-20)
(3.41154 0.499717 6.68358e-20)
(3.36513 0.49292 -1.16713e-19)
(3.31996 0.486304 0)
(4.87953 0.831151 0)
(4.78479 0.815013 1.99585e-19)
(4.69366 0.799491 0)
(4.60593 0.784548 3.30426e-19)
(4.52142 0.770155 -5.84937e-21)
(4.43995 0.756278 2.07872e-19)
(4.36137 0.742893 0)
(4.28553 0.729972 4.75269e-27)
(4.21228 0.717495 3.7738e-19)
(4.14149 0.70544 -2.20348e-19)
(4.07305 0.693781 -2.01388e-19)
(4.00683 0.682501 4.79394e-19)
(3.94273 0.671584 0)
(3.88065 0.66101 2.62564e-19)
(3.8205 0.650762 2.93518e-19)
(3.76218 0.640828 -6.23966e-21)
(3.70562 0.631195 -7.00228e-20)
(3.65073 0.621847 5.63455e-21)
(3.59744 0.612768 1.44242e-19)
(3.54569 0.603953 1.09596e-19)
(3.4954 0.595387 -1.27422e-19)
(3.44652 0.587062 4.63751e-21)
(3.39899 0.578966 4.42527e-21)
(3.35275 0.57109 1.87174e-20)
(3.30775 0.563425 -9.53784e-20)
(4.85887 0.944466 -1.72875e-19)
(4.76453 0.926128 -2.9446e-20)
(4.67378 0.908492 0)
(4.58642 0.891512 -1.84949e-19)
(4.50227 0.875155 0)
(4.42115 0.859386 -4.32541e-19)
(4.34291 0.844176 2.57467e-19)
(4.26739 0.829494 1.6011e-19)
(4.19444 0.815317 -3.77402e-19)
(4.12396 0.801617 4.32044e-19)
(4.0558 0.788367 -2.09566e-19)
(3.98986 0.77555 -3.31708e-19)
(3.92603 0.763145 1.90031e-19)
(3.86422 0.751128 -1.31283e-19)
(3.80432 0.739484 -1.27245e-19)
(3.74625 0.728196 1.23392e-19)
(3.68992 0.71725 1.51754e-19)
(3.63527 0.706627 -1.50755e-19)
(3.58221 0.69631 -1.38873e-19)
(3.53068 0.686293 2.84928e-20)
(3.4806 0.676561 1.0651e-19)
(3.43193 0.6671 -1.22161e-19)
(3.3846 0.6579 2.22327e-19)
(3.33856 0.64895 9.79896e-20)
(3.29375 0.64024 9.53786e-20)
(4.83558 1.05727 1.72882e-19)
(4.74168 1.03674 1.55922e-19)
(4.65137 1.017 -6.28969e-19)
(4.56443 0.997993 -1.72476e-19)
(4.48069 0.979681 2.86967e-19)
(4.39996 0.962027 -1.71854e-19)
(4.32209 0.945001 -1.65828e-19)
(4.24693 0.928567 2.345e-19)
(4.17434 0.912699 -3.86572e-19)
(4.10419 0.89736 -3.61217e-19)
(4.03636 0.882527 2.09565e-19)
(3.97073 0.86818 -1.39961e-19)
(3.90721 0.854293 -1.35517e-19)
(3.84569 0.840841 0)
(3.78608 0.827808 0)
(3.72829 0.815171 -2.4678e-19)
(3.67223 0.802915 3.20456e-20)
(3.61784 0.791022 -1.50755e-19)
(3.56504 0.779474 -2.517e-19)
(3.51375 0.768262 5.10411e-21)
(3.46392 0.757367 4.86334e-21)
(3.41548 0.746776 -9.89147e-20)
(3.36837 0.736478 2.38816e-19)
(3.32255 0.726457 -3.41688e-19)
(3.27795 0.716707 -8.73061e-20)
(4.80967 1.16951 3.60974e-19)
(4.71628 1.1468 0)
(4.62645 1.12496 -3.07842e-19)
(4.53998 1.10393 4.88371e-19)
(4.45668 1.08368 0)
(4.37638 1.06415 1.71857e-19)
(4.29893 1.04532 1.65828e-19)
(4.22417 1.02714 0)
(4.15197 1.00958 3.77391e-19)
(4.08219 0.992617 -2.82507e-19)
(4.01473 0.97621 8.17742e-21)
(3.94946 0.960341 7.73242e-21)
(3.88627 0.944977 3.25541e-19)
(3.82508 0.930098 0)
(3.76579 0.915682 0)
(3.70831 0.901704 -3.54016e-20)
(3.65256 0.888146 1.57682e-19)
(3.59846 0.874991 0)
(3.54593 0.862218 1.1282e-19)
(3.49492 0.849815 1.32983e-19)
(3.44535 0.837763 -3.87129e-19)
(3.39717 0.826049 3.57156e-19)
(3.35032 0.814657 2.34372e-19)
(3.30475 0.803574 -2.33417e-19)
(3.26039 0.792789 -1.20674e-19)
(4.78115 1.2811 5.68541e-19)
(4.68832 1.25623 0)
(4.59902 1.2323 1.9206e-19)
(4.51306 1.20927 -4.75888e-19)
(4.43026 1.18708 4.65187e-19)
(4.35044 1.1657 -4.32569e-19)
(4.27344 1.14507 4.23299e-19)
(4.19913 1.12515 -1.6011e-19)
(4.12735 1.10592 -1.54684e-19)
(4.05799 1.08733 -1.49521e-19)
(3.99093 1.06936 -1.44624e-19)
(3.92604 1.05198 1.91746e-19)
(3.86324 1.03515 -3.25558e-19)
(3.80241 1.01885 -3.05529e-19)
(3.74346 1.00306 4.56036e-20)
(3.68632 0.987746 -1.23388e-19)
(3.6309 0.972897 -1.19709e-19)
(3.57712 0.958487 -4.06433e-19)
(3.52491 0.944495 -1.02096e-19)
(3.4742 0.930908 1.66583e-19)
(3.42493 0.917706 1.0651e-19)
(3.37703 0.904873 -3.47874e-19)
(3.33046 0.892393 5.7832e-19)
(3.28515 0.880254 -1.06445e-19)
(3.24106 0.868439 -1.28747e-19)
(4.75005 1.39201 -5.53325e-19)
(4.65782 1.36498 3.40293e-19)
(4.5691 1.33899 -1.92054e-19)
(4.4837 1.31396 1.84943e-19)
(4.40144 1.28985 -4.535e-19)
(4.32213 1.26661 4.43559e-19)
(4.24564 1.24419 -1.65829e-19)
(4.17181 1.22255 -7.43877e-20)
(4.1005 1.20166 6.09259e-19)
(4.03159 1.18146 -7.08211e-20)
(3.96496 1.16194 -5.67668e-20)
(3.9005 1.14305 5.31188e-19)
(3.8381 1.12476 2.63706e-19)
(3.77767 1.10706 -1.81156e-19)
(3.71912 1.0899 -2.05309e-19)
(3.66235 1.07326 4.53464e-19)
(3.60728 1.05712 -1.83807e-19)
(3.55385 1.04146 8.24135e-19)
(3.50198 1.02626 -1.75655e-19)
(3.4516 1.0115 1.09595e-19)
(3.40265 0.997154 -3.61364e-19)
(3.35506 0.983208 4.60704e-19)
(3.30879 0.969646 1.33664e-19)
(3.26378 0.956458 -2.33421e-19)
(3.21998 0.943621 -9.53829e-20)
(4.71637 1.50216 2.07577e-19)
(4.62479 1.47299 3.26069e-19)
(4.53671 1.44494 -1.33065e-20)
(4.45191 1.41793 -5.94364e-19)
(4.37023 1.39192 2.8697e-19)
(4.29149 1.36684 0)
(4.21554 1.34265 -2.47137e-19)
(4.14223 1.3193 2.44238e-19)
(4.07143 1.29675 1.54679e-19)
(4.00301 1.27496 -2.11693e-19)
(3.93685 1.25389 3.54198e-19)
(3.87285 1.2335 0)
(3.81089 1.21377 -2.60241e-27)
(3.75089 1.19466 1.31283e-19)
(3.69274 1.17614 4.5979e-19)
(3.63638 1.15819 -1.24792e-20)
(3.58171 1.14078 -3.15351e-19)
(3.52866 1.12387 -1.16184e-19)
(3.47715 1.10747 1.12823e-19)
(3.42713 1.09154 0)
(3.37853 1.07606 0)
(3.33128 1.06101 1.4078e-19)
(3.28534 1.04638 -4.7763e-19)
(3.24064 1.03214 3.31415e-19)
(3.19715 1.01829 0)
(4.68014 1.6115 2.07571e-19)
(4.58927 1.58021 3.26053e-19)
(4.50186 1.55011 6.29685e-20)
(4.41772 1.52114 -6.60845e-19)
(4.33666 1.49324 2.86976e-19)
(4.25853 1.46633 -3.43717e-19)
(4.18316 1.44038 0)
(4.11042 1.41533 -3.2022e-19)
(4.04016 1.39114 6.80233e-20)
(3.97226 1.36776 -8.65682e-21)
(3.90661 1.34516 -1.04625e-18)
(3.8431 1.32329 3.98951e-19)
(3.78162 1.30212 -4.06563e-19)
(3.72208 1.28161 0)
(3.66438 1.26175 -3.81745e-19)
(3.60845 1.24249 0)
(3.5542 1.22381 -2.39407e-19)
(3.50155 1.20568 0)
(3.45044 1.18808 -1.12826e-19)
(3.4008 1.17098 0)
(3.35257 1.15438 -2.13017e-19)
(3.30568 1.13824 -2.44333e-19)
(3.2601 1.12254 4.18036e-20)
(3.21574 1.10727 -2.24969e-19)
(3.17259 1.09241 1.98822e-19)
(4.64137 1.71997 -5.41704e-20)
(4.55125 1.68656 0)
(4.46457 1.65444 -7.62748e-20)
(4.38112 1.62352 3.57411e-19)
(4.30074 1.59374 -3.68126e-19)
(4.22325 1.56503 7.20234e-20)
(4.14851 1.53732 0)
(4.07636 1.51059 8.57225e-20)
(4.00669 1.48477 5.41241e-19)
(3.93936 1.45982 0)
(3.87425 1.43569 2.89243e-19)
(3.81127 1.41235 -2.79917e-19)
(3.75029 1.38976 6.36487e-19)
(3.69125 1.36787 -7.10786e-19)
(3.63403 1.34668 3.45708e-19)
(3.57856 1.32612 0)
(3.52475 1.30618 3.0351e-19)
(3.47254 1.28683 -1.12692e-20)
(3.42186 1.26805 -5.66225e-19)
(3.37263 1.2498 7.61359e-19)
(3.3248 1.23208 -2.64566e-19)
(3.2783 1.21485 0)
(3.23309 1.1981 -6.4178e-28)
(3.18911 1.1818 0)
(3.1463 1.16593 -1.65469e-19)
(4.60009 1.82751 -3.45754e-19)
(4.51078 1.79201 -5.88926e-20)
(4.42486 1.75788 -3.0784e-19)
(4.34216 1.72503 3.03423e-19)
(4.26249 1.69338 6.31717e-19)
(4.18569 1.66287 -2.71688e-19)
(4.11161 1.63344 0)
(4.04011 1.60504 0)
(3.97106 1.5776 -3.09369e-19)
(3.90432 1.55109 4.23402e-19)
(3.83979 1.52545 -1.63549e-20)
(3.77737 1.50065 -1.19038e-19)
(3.71694 1.47665 0)
(3.65842 1.45339 0)
(3.6017 1.43087 8.41521e-19)
(3.54673 1.40902 -3.30063e-19)
(3.49341 1.38784 2.39412e-19)
(3.44166 1.36729 0)
(3.39143 1.34733 0)
(3.34264 1.32794 -2.19202e-19)
(3.29523 1.30911 4.67871e-19)
(3.24915 1.2908 -9.27455e-21)
(3.20434 1.27301 -4.18039e-20)
(3.16075 1.25569 0)
(3.11833 1.23883 -2.16065e-19)
(4.55633 1.93405 0)
(4.46786 1.89649 1.12443e-18)
(4.38276 1.86037 -3.21156e-19)
(4.30084 1.8256 0)
(4.22193 1.7921 2.75267e-19)
(4.14587 1.75982 -9.39991e-20)
(4.07249 1.72867 -5.14956e-19)
(4.00167 1.69861 0)
(3.93327 1.66957 4.45406e-19)
(3.86717 1.64152 -7.3976e-19)
(3.80326 1.61439 0)
(3.74143 1.58814 -3.83498e-19)
(3.68157 1.56274 1.46367e-20)
(3.62361 1.53813 3.62357e-19)
(3.56743 1.51429 -2.54486e-19)
(3.51298 1.49117 0)
(3.46016 1.46875 3.0351e-19)
(3.40891 1.447 -5.91752e-19)
(3.35916 1.42588 2.88475e-19)
(3.31083 1.40537 -2.65964e-19)
(3.26388 1.38544 2.64576e-19)
(3.21824 1.36606 -2.4432e-19)
(3.17385 1.34722 2.43231e-19)
(3.13068 1.32889 0)
(3.08866 1.31106 1.90757e-19)
(4.51009 2.03954 5.41675e-20)
(4.42252 1.99994 -3.99189e-19)
(4.33828 1.96185 3.84119e-19)
(4.2572 1.92518 -3.69878e-19)
(4.17909 1.88986 5.50545e-19)
(4.1038 1.85581 3.21734e-19)
(4.03117 1.82297 -1.00925e-18)
(3.96106 1.79126 4.88457e-19)
(3.89336 1.76064 -4.45414e-19)
(3.82793 1.73106 1.16317e-18)
(3.76466 1.70245 -4.1913e-19)
(3.70346 1.67477 2.79921e-19)
(3.64422 1.64798 0)
(3.58684 1.62203 2.62575e-19)
(3.53123 1.59689 3.32548e-19)
(3.47733 1.57251 -3.30061e-19)
(3.42505 1.54887 2.39422e-19)
(3.37432 1.52593 0)
(3.32507 1.50366 -2.77763e-19)
(3.27723 1.48202 5.42142e-19)
(3.23075 1.46101 2.03293e-19)
(3.18558 1.44057 -4.60718e-19)
(3.14164 1.42071 2.01435e-19)
(3.0989 1.40138 0)
(3.05731 1.38257 2.16047e-19)
(4.46141 2.14394 -7.60898e-19)
(4.37479 2.10231 1.42205e-20)
(4.29146 2.06227 -4.47081e-19)
(4.21125 2.02372 3.69895e-19)
(4.13398 1.98659 5.5055e-19)
(4.0595 1.9508 -5.43379e-19)
(3.98765 1.91627 8.25921e-19)
(3.91831 1.88295 -4.88449e-19)
(3.85134 1.85076 -4.45401e-19)
(3.78662 1.81967 7.39751e-19)
(3.72403 1.78959 0)
(3.66349 1.7605 -4.04653e-27)
(3.60488 1.73233 0)
(3.54812 1.70505 1.08697e-26)
(3.49312 1.67863 2.54476e-19)
(3.4398 1.653 0)
(3.38809 1.62815 -1.22427e-26)
(3.3379 1.60403 0)
(3.28918 1.58062 2.77763e-19)
(3.24186 1.55788 -3.22956e-19)
(3.19588 1.53579 5.15509e-20)
(3.15119 1.51431 2.07111e-19)
(3.10773 1.49343 -4.3579e-19)
(3.06546 1.47311 6.54359e-19)
(3.02432 1.45334 -2.24121e-19)
(4.41032 2.24717 -3.45748e-19)
(4.32469 2.20354 1.42203e-20)
(4.24231 2.16157 7.05266e-19)
(4.16302 2.12116 0)
(4.08664 2.08225 3.56452e-19)
(4.01301 2.04473 0)
(3.94198 2.00854 -3.31659e-19)
(3.87343 1.97361 7.89243e-19)
(3.80722 1.93987 -1.83478e-20)
(3.74324 1.90728 -4.40681e-19)
(3.68138 1.87576 0)
(3.62153 1.84526 -6.63386e-19)
(3.5636 1.81574 6.51105e-19)
(3.50748 1.78715 -1.57877e-26)
(3.45311 1.75945 1.33281e-26)
(3.40041 1.73259 -3.17581e-19)
(3.34928 1.70655 3.79453e-19)
(3.29967 1.68127 2.21101e-19)
(3.25151 1.65673 -5.66232e-19)
(3.20473 1.63289 2.7619e-19)
(3.15928 1.60974 2.54835e-19)
(3.1151 1.58723 -2.53609e-19)
(3.07214 1.56533 4.35785e-19)
(3.03035 1.54404 -4.29405e-19)
(2.98968 1.52332 1.90765e-19)
(4.35683 2.34918 7.60906e-19)
(4.27224 2.30357 5.88923e-20)
(4.19086 2.25969 9.99795e-19)
(4.11253 2.21746 -2.3695e-19)
(4.03707 2.17678 -1.43161e-26)
(3.96434 2.13755 3.43704e-19)
(3.89418 2.09972 3.31642e-19)
(3.82646 2.06321 -3.20212e-19)
(3.76106 2.02794 4.45415e-19)
(3.69785 1.99387 -4.40713e-19)
(3.63674 1.96091 -1.13531e-19)
(3.57761 1.92903 6.78864e-19)
(3.52038 1.89817 -5.64313e-27)
(3.46495 1.86829 -3.48465e-19)
(3.41124 1.83933 -4.95841e-19)
(3.35917 1.81125 3.30062e-19)
(3.30866 1.78402 5.42935e-19)
(3.25966 1.75759 -3.01515e-19)
(3.21208 1.73194 -2.77752e-19)
(3.16587 1.70702 5.6988e-20)
(3.12097 1.68281 -4.1823e-20)
(3.07733 1.65928 4.64996e-20)
(3.03489 1.63639 -2.01425e-19)
(2.9936 1.61413 1.95986e-19)
(2.95342 1.59247 -1.76863e-28)
(4.30099 2.44992 -4.15157e-19)
(4.21748 2.40235 4.99773e-27)
(4.13715 2.3566 -3.84103e-19)
(4.05982 2.31255 -9.51763e-19)
(3.98533 2.27013 2.33967e-20)
(3.91353 2.22922 1.99666e-19)
(3.84427 2.18977 -3.31661e-19)
(3.77742 2.15169 0)
(3.71285 2.11491 3.09368e-19)
(3.65045 2.07937 -4.23382e-19)
(3.59013 2.045 1.29878e-19)
(3.53176 2.01176 -2.79919e-19)
(3.47526 1.97958 -8.15064e-28)
(3.42054 1.94841 -2.62566e-19)
(3.36752 1.91821 5.08989e-19)
(3.31612 1.88892 0)
(3.26626 1.86053 -5.4289e-19)
(3.21788 1.83297 6.91471e-20)
(3.17091 1.80621 2.25631e-19)
(3.1253 1.78023 0)
(3.08097 1.75498 -1.71202e-19)
(3.03789 1.73044 -2.90824e-19)
(2.99599 1.70657 -2.25543e-19)
(2.95523 1.68336 2.70861e-19)
(2.91557 1.66077 -3.81522e-19)
(4.24282 2.54934 3.60967e-19)
(4.16044 2.49984 2.52954e-19)
(4.08119 2.45223 -6.42315e-19)
(4.00491 2.40639 0)
(3.93143 2.36224 -9.06955e-19)
(3.8606 2.31968 5.43382e-19)
(3.79227 2.27863 0)
(3.72633 2.239 0)
(3.66263 2.20073 -3.09359e-19)
(3.60108 2.16376 -2.99063e-19)
(3.54157 2.12798 0)
(3.48399 2.09339 -3.83511e-19)
(3.42825 2.0599 1.09018e-19)
(3.37428 2.02747 0)
(3.32197 1.99604 -2.54482e-19)
(3.27126 1.96558 0)
(3.22208 1.93602 3.03506e-19)
(3.17436 1.90734 -3.01515e-19)
(3.12803 1.8795 5.21183e-20)
(3.08302 1.85247 -1.02081e-20)
(3.0393 1.8262 -2.64576e-19)
(2.9968 1.80066 -4.88644e-19)
(2.95547 1.77582 4.86472e-19)
(2.91526 1.75167 -6.45904e-19)
(2.87613 1.72816 6.38993e-19)
(4.18235 2.64738 -3.06809e-19)
(4.10114 2.59597 6.52115e-19)
(4.02303 2.54653 -2.58182e-19)
(3.94783 2.49893 0)
(3.8754 2.45308 3.56424e-19)
(3.80558 2.40889 5.21405e-19)
(3.73823 2.36626 -5.14946e-19)
(3.67322 2.3251 0)
(3.61043 2.28536 4.45418e-19)
(3.54976 2.24696 -1.41638e-19)
(3.49109 2.20982 2.89252e-19)
(3.43434 2.17389 0)
(3.3794 2.13912 2.71044e-19)
(3.32619 2.10543 3.48465e-19)
(3.27463 2.0728 -4.23754e-19)
(3.22464 2.04117 5.76826e-19)
(3.17616 2.01047 0)
(3.12912 1.98069 2.32373e-19)
(3.08345 1.95178 0)
(3.03908 1.92371 2.19191e-19)
(2.99598 1.89643 4.26044e-19)
(2.95409 1.8699 -4.88648e-19)
(2.91335 1.84411 1.15663e-18)
(2.87372 1.81903 -2.70857e-19)
(2.83515 1.79461 0)
(4.11962 2.74398 -4.15145e-19)
(4.03963 2.6907 0)
(3.96268 2.63945 -3.84129e-19)
(3.88862 2.59012 0)
(3.81727 2.54259 -2.78233e-26)
(3.74849 2.49678 0)
(3.68215 2.4526 0)
(3.61812 2.40995 0)
(3.55628 2.36875 4.45416e-19)
(3.49651 2.32895 -7.39721e-19)
(3.43873 2.29046 -1.75721e-19)
(3.38282 2.25322 -3.98957e-19)
(3.32871 2.21718 -2.71039e-19)
(3.2763 2.18226 0)
(3.22551 2.14844 -2.54489e-19)
(3.17627 2.11565 3.17591e-19)
(3.12852 2.08383 -3.15362e-19)
(3.08218 2.05297 -2.32376e-19)
(3.03719 2.023 -2.77767e-19)
(2.9935 1.9939 5.88906e-19)
(2.95104 1.96562 -1.94529e-20)
(2.90978 1.93813 -7.14298e-19)
(2.86965 1.9114 -2.01429e-19)
(2.83061 1.8854 -2.53965e-19)
(2.79262 1.86009 2.57505e-19)
(4.05465 2.8391 4.15148e-19)
(3.97592 2.78397 3.99178e-19)
(3.90019 2.73095 -9.99792e-19)
(3.8273 2.6799 3.94826e-19)
(3.75707 2.63073 5.73959e-19)
(3.68938 2.58333 8.65087e-19)
(3.62409 2.53761 -1.83292e-19)
(3.56106 2.49349 0)
(3.5002 2.45086 3.09372e-19)
(3.44137 2.40968 0)
(3.3845 2.36985 5.78495e-19)
(3.32948 2.33132 2.79915e-19)
(3.27621 2.29403 3.65415e-19)
(3.22463 2.25791 -6.24918e-19)
(3.17464 2.22291 0)
(3.12618 2.18898 2.14534e-27)
(3.07918 2.15607 3.03509e-19)
(3.03358 2.12413 -5.9178e-19)
(2.9893 2.09313 2.8847e-19)
(2.9463 2.06302 0)
(2.90451 2.03376 -7.22699e-19)
(2.86389 2.00532 2.25667e-19)
(2.82439 1.97766 6.87901e-19)
(2.78597 1.95076 -1.95982e-19)
(2.74858 1.92458 1.90759e-19)
(3.98749 2.93268 -1.13709e-18)
(3.91006 2.87573 -1.05132e-18)
(3.83559 2.82096 1.02639e-18)
(3.7639 2.76823 -9.51775e-19)
(3.69484 2.71744 5.73942e-19)
(3.62827 2.66848 -6.87437e-19)
(3.56406 2.62125 -3.31644e-19)
(3.50208 2.57567 3.2022e-19)
(3.44222 2.53165 1.36051e-19)
(3.38437 2.4891 -1.41641e-19)
(3.32844 2.44796 -4.5139e-27)
(3.27433 2.40816 -2.79925e-19)
(3.22194 2.36964 -9.43862e-20)
(3.17121 2.33233 3.62333e-19)
(3.12206 2.29618 0)
(3.0744 2.26113 -4.93544e-19)