/*--------------------------------*- C++ -*----------------------------------*\
| =========                 |                                                 |
| \\      /  F ield         | OpenFOAM Extend Project: Open source CFD        |
|  \\    /   O peration     | Version:  1.6-ext                               |
|   \\  /    A nd           | Web:      www.extend-project.de                 |
|    \\/     M anipulation  |                                                 |
\*---------------------------------------------------------------------------*/
FoamFile
{
    version     2.0;
    format      ascii;
    class       volVectorField;
    location    "0";
    object      U;
}
// * * * * * * * * * * * * * * * * * * * * * * * * * * * * * * * * * * * * * //

dimensions      [0 1 -1 0 0 0 0];

internalField   nonuniform List<vector> 
1100
(
(4.50054 8.6999 -2.58725e-18)
(4.33085 8.37188 5.73374e-18)
(4.1735 8.06771 -3.29925e-18)
(4.02718 7.78486 0)
(3.89077 7.52117 -3.35126e-18)
(3.7633 7.27476 3.43879e-18)
(3.64392 7.04398 0)
(3.53188 6.8274 0)
(3.42652 6.62374 -9.43812e-19)
(3.32727 6.43187 -2.10047e-18)
(3.2336 6.25081 2.17594e-18)
(3.14507 6.07966 0)
(3.06125 5.91764 7.53257e-19)
(2.98178 5.76402 -7.14648e-19)
(2.90634 5.61818 6.78928e-19)
(2.83462 5.47954 -2.60262e-18)
(2.76635 5.34757 5.75363e-18)
(2.70129 5.22181 -2.53068e-18)
(2.63922 5.10183 2.10232e-18)
(2.57994 4.98723 -2.20348e-18)
(2.52327 4.87767 5.11719e-19)
(2.46903 4.77282 -1.23249e-18)
(2.41707 4.67238 1.34099e-18)
(2.36725 4.57609 0)
(2.31945 4.48368 0)
(3.67861 9.07804 0)
(3.53992 8.73577 -2.307e-18)
(3.4113 8.41837 2.34981e-18)
(3.29171 8.12323 1.30386e-18)
(3.18021 7.84808 3.35127e-18)
(3.07601 7.59096 -6.47285e-18)
(2.97844 7.35015 2.05259e-18)
(2.88685 7.12416 0)
(2.80074 6.91164 9.43807e-19)
(2.71962 6.71143 2.99039e-18)
(2.64306 6.5225 -2.17595e-18)
(2.57069 6.34392 -7.95086e-19)
(2.50218 6.17485 -7.53256e-19)
(2.43723 6.01456 1.06167e-26)
(2.37556 5.86238 -6.7893e-19)
(2.31694 5.71771 3.89427e-18)
(2.26113 5.58 -1.52921e-18)
(2.20796 5.44878 -2.53066e-18)
(2.15723 5.32358 0)
(2.10877 5.20401 -2.49923e-18)
(2.06245 5.08968 2.06085e-18)
(2.01811 4.98028 0)
(1.97565 4.87547 -6.66651e-27)
(1.93493 4.77499 0)
(1.89585 4.67857 4.32373e-19)
(2.8253 9.37874 -2.58724e-18)
(2.71878 9.02513 2.62775e-18)
(2.62 8.69722 -7.00185e-19)
(2.52815 8.3923 -1.30386e-18)
(2.44251 8.10803 0)
(2.36249 7.8424 0)
(2.28754 7.59361 1.91153e-18)
(2.2172 7.36013 -3.92999e-18)
(2.15107 7.14057 2.59151e-18)
(2.08876 6.93374 0)
(2.02996 6.73855 0)
(1.97438 6.55405 2.17276e-18)
(1.92176 6.37938 -1.84471e-18)
(1.87187 6.21378 2.22846e-18)
(1.82451 6.05656 -1.57743e-18)
(1.77949 5.90709 -2.27006e-18)
(1.73663 5.76483 1.97448e-18)
(1.69579 5.62925 0)
(1.65683 5.49991 0)
(1.61961 5.37637 5.34963e-19)
(1.58403 5.25827 -7.6757e-19)
(1.54998 5.14524 0)
(1.51737 5.03696 4.69539e-19)
(1.48609 4.93315 1.5187e-18)
(1.45608 4.83353 -2.24771e-18)
(1.94789 9.59942 1.29361e-18)
(1.87445 9.23749 -1.69087e-18)
(1.80635 8.90186 2.76602e-18)
(1.74302 8.58977 -3.96689e-18)
(1.68398 8.29881 1.90128e-18)
(1.6288 8.02693 0)
(1.57714 7.77229 5.33709e-19)
(1.52864 7.53331 -1.25514e-18)
(1.48304 7.30859 1.29576e-18)
(1.44009 7.09689 0)
(1.39955 6.8971 0)
(1.36123 6.70826 1.28515e-18)
(1.32495 6.52948 -9.22351e-19)
(1.29055 6.35999 0)
(1.2579 6.19907 0)
(1.22686 6.04609 3.22913e-19)
(1.19731 5.90047 0)
(1.16915 5.76171 1.1268e-18)
(1.14229 5.62932 -2.23093e-18)
(1.11664 5.50288 1.10173e-18)
(1.0921 5.38199 2.55857e-19)
(1.06862 5.2663 0)
(1.04614 5.15548 0)
(1.02458 5.04923 0)
(1.00389 4.94726 9.3059e-19)
(1.05386 9.73819 -1.82028e-19)
(1.01413 9.37103 -9.36873e-19)
(0.97728 9.03055 1.03292e-18)
(0.943017 8.71395 -1.26296e-19)
(0.911074 8.41879 -1.78845e-18)
(0.881224 8.14297 8.59699e-19)
(0.853272 7.88465 0)
(0.827036 7.64222 6.27572e-19)
(0.802365 7.41425 -6.47877e-19)
(0.779126 7.19949 1.11239e-19)
(0.757192 6.99681 -1.44655e-18)
(0.736459 6.80524 3.3755e-18)
(0.71683 6.62388 -3.57642e-18)
(0.698223 6.45193 1.70409e-18)
(0.680557 6.28869 8.48663e-20)
(0.663761 6.1335 -5.69929e-19)
(0.647777 5.98578 1.28463e-18)
(0.632541 5.84501 -1.19607e-18)
(0.618008 5.71071 1.11546e-18)
(0.604129 5.58244 -1.53302e-18)
(0.590856 5.4598 6.34878e-19)
(0.578154 5.34244 5.43816e-19)
(0.565989 5.23001 -3.45384e-19)
(0.554324 5.12222 1.18448e-18)
(0.54313 5.01879 -7.99578e-19)
(0.150836 9.79389 0)
(0.145149 9.42463 -9.42508e-20)
(0.139875 9.0822 -8.75234e-20)
(0.134971 8.76378 1.16071e-19)
(0.1304 8.46694 -1.94892e-19)
(0.126128 8.18954 -7.11582e-20)
(0.122127 7.92975 -6.67136e-20)
(0.118373 7.68593 1.57739e-20)
(0.114841 7.45665 -8.09847e-20)
(0.111515 7.24066 -1.66858e-19)
(0.108376 7.03683 0)
(0.105408 6.84416 -1.49079e-19)
(0.102598 6.66176 9.41575e-20)
(0.0999359 6.48883 -4.46654e-20)
(0.0974075 6.32465 -1.27299e-19)
(0.0950029 6.16857 -2.02423e-19)
(0.0927159 6.02001 4.65192e-20)
(0.0905344 5.87844 0)
(0.0884536 5.74337 -3.49899e-20)
(0.0864677 5.61436 -3.34354e-20)
(0.0845677 5.49103 -9.59465e-20)
(0.0827498 5.37299 -6.12434e-20)
(0.0810084 5.25993 -8.80387e-20)
(0.0793394 5.15152 6.67704e-20)
(0.0777376 5.04749 -7.2924e-20)
(-0.753476 9.76603 9.775e-19)
(-0.725066 9.39782 -5.62685e-19)
(-0.698721 9.05636 -4.28936e-19)
(-0.674225 8.73885 6.3148e-20)
(-0.651385 8.44285 5.5138e-19)
(-0.630045 8.16625 8.29673e-19)
(-0.610059 7.90719 -7.13288e-19)
(-0.591301 7.66406 -1.88018e-19)
(-0.573662 7.43544 -2.35953e-19)
(-0.557046 7.22006 -6.91977e-19)
(-0.541364 7.01681 6.18048e-20)
(-0.526542 6.82469 1.4376e-18)
(-0.512511 6.64281 -9.2235e-19)
(-0.499204 6.47037 8.01568e-19)
(-0.486573 6.30666 -1.09684e-18)
(-0.474567 6.15103 8.07891e-20)
(-0.463134 6.00289 6.80756e-19)
(-0.452245 5.86171 -3.16334e-19)
(-0.441854 5.72703 3.49898e-20)
(-0.431929 5.59839 5.24505e-19)
(-0.422441 5.47541 -2.37151e-20)
(-0.413361 5.35771 -5.19651e-20)
(-0.404661 5.24496 -7.09975e-19)
(-0.396321 5.13687 7.35903e-20)
(-0.388318 5.03314 1.55623e-20)
(-1.65136 9.65485 -1.06851e-18)
(-1.58909 9.29083 -1.1535e-18)
(-1.53136 8.95326 1.41988e-19)
(-1.47767 8.63937 1.05487e-18)
(-1.42762 8.34674 -1.67564e-18)
(-1.38084 8.07328 1.7194e-18)
(-1.33704 7.81717 0)
(-1.29593 7.57681 1.50584e-18)
(-1.25727 7.35079 -1.0598e-18)
(-1.22085 7.13787 -8.27753e-19)
(-1.18648 6.93694 1.08797e-18)
(-1.154 6.747 8.87614e-19)
(-1.12325 6.56719 -9.2235e-19)
(-1.09409 6.39671 7.56907e-19)
(-1.06641 6.23486 -8.76111e-20)
(-1.04009 6.081 -7.31504e-19)
(-1.01504 5.93455 0)
(-0.991166 5.79498 0)
(-0.968391 5.66183 -1.05116e-18)
(-0.946642 5.53466 1.10174e-18)
(-0.925845 5.41307 0)
(-0.905944 5.29671 0)
(-0.88688 5.18525 -1.17386e-19)
(-0.868601 5.07839 -7.59355e-19)
(-0.85106 4.97583 7.99574e-19)
(-2.53515 9.46129 0)
(-2.43956 9.10458 2.307e-18)
(-2.35093 8.77378 -2.34981e-18)
(-2.2685 8.46617 1.85714e-18)
(-2.19167 8.17941 -1.90127e-18)
(-2.11986 7.91143 0)
(-2.05261 7.66046 0)
(-1.9895 7.42492 0)
(-1.93015 7.20343 0)
(-1.87424 6.99477 0)
(-1.82148 6.79787 0)
(-1.77161 6.61174 0)
(-1.7244 6.43553 1.63757e-18)
(-1.67963 6.26848 -3.21789e-18)
(-1.63714 6.10987 1.57742e-18)
(-1.59674 5.95909 0)
(-1.55828 5.81558 0)
(-1.52163 5.67881 -1.1268e-18)
(-1.48667 5.54833 1.28601e-19)
(-1.45328 5.4237 1.10173e-18)
(-1.42135 5.30456 9.1903e-19)
(-1.3908 5.19053 -9.65149e-19)
(-1.36153 5.0813 0)
(-1.33347 4.97658 -1.51871e-18)
(-1.30654 4.87608 1.70343e-19)
(-3.39731 9.18702 0)
(-3.26921 8.84064 0)
(-3.15044 8.51943 0)
(-3.03999 8.22075 0)
(-2.93702 7.94229 3.35127e-18)
(-2.84079 7.68208 -6.47284e-18)
(-2.75068 7.43839 3.12001e-18)
(-2.6661 7.20968 0)
(-2.58657 6.99461 -1.3494e-18)
(-2.51164 6.792 1.48173e-18)
(-2.44094 6.6008 0)
(-2.37411 6.42007 1.7752e-18)
(-2.31084 6.24898 -1.8447e-18)
(-2.25085 6.08676 0)
(-2.1939 5.93275 1.4022e-18)
(-2.13976 5.78635 -1.46301e-18)
(-2.08823 5.64699 0)
(-2.03912 5.51419 0)
(-1.99226 5.38749 1.54249e-18)
(-1.94752 5.26647 -2.73842e-18)
(-1.90473 5.15078 1.83807e-18)
(-1.86379 5.04006 -2.42025e-18)
(-1.82457 4.934 1.14676e-18)
(-1.78696 4.83231 -1.70047e-18)
(-1.75088 4.73473 -4.32372e-19)
(-4.23049 8.83436 -1.32275e-18)
(-4.07098 8.50128 -1.50801e-18)
(-3.92308 8.1924 0)
(-3.78553 7.90518 -1.30386e-18)
(-3.65731 7.63742 0)
(-3.53749 7.3872 3.03405e-18)
(-3.42527 7.15286 -3.12e-18)
(-3.31995 6.93292 0)
(-3.22091 6.72612 -9.4381e-19)
(-3.12762 6.53129 8.89905e-19)
(-3.03957 6.34743 0)
(-2.95635 6.17363 0)
(-2.87756 6.0091 0)
(-2.80287 5.85311 -7.14646e-19)
(-2.73194 5.70502 0)
(-2.66453 5.56423 0)
(-2.60036 5.43022 0)
(-2.53921 5.30252 0)
(-2.48086 5.18068 5.59839e-19)
(-2.42514 5.06432 5.34964e-19)
(-2.37186 4.95306 0)
(-2.32088 4.84659 2.21238e-18)
(-2.27203 4.7446 -1.34099e-18)
(-2.22521 4.64682 0)
(-2.18028 4.55298 4.32367e-19)
(-5.02758 8.40634 1.91738e-18)
(-4.83801 8.0894 -5.25552e-18)
(-4.66224 7.79548 -1.40037e-18)
(-4.49878 7.52217 1.30387e-18)
(-4.3464 7.26738 0)
(-4.204 7.02929 0)
(-4.07064 6.80629 0)
(-3.94548 6.59702 -1.00276e-18)
(-3.82778 6.40023 -2.29323e-18)
(-3.7169 6.21484 2.37164e-18)
(-3.61227 6.03989 1.92873e-18)
(-3.51337 5.87451 -2.00121e-18)
(-3.41974 5.71796 0)
(-3.33096 5.56953 -3.0276e-18)
(-3.24668 5.42861 3.15485e-18)
(-3.16656 5.29464 0)
(-3.0903 5.16712 -6.1508e-19)
(-3.01763 5.04561 -2.25358e-18)
(-2.94829 4.92967 2.35953e-18)
(-2.88207 4.81895 -1.96428e-18)
(-2.81875 4.71309 2.57257e-18)
(-2.75816 4.61177 0)
(-2.70012 4.51473 -1.61631e-18)
(-2.64447 4.42168 1.2501e-18)
(-2.59107 4.33239 0)
(-5.78177 7.90659 -5.90258e-18)
(-5.56377 7.60849 6.12204e-18)
(-5.36162 7.33205 -4.69961e-18)
(-5.17365 7.07499 0)
(-4.99841 6.83535 0)
(-4.83465 6.61141 -1.13853e-18)
(-4.68128 6.40167 -1.06741e-18)
(-4.53735 6.20484 -5.04765e-19)
(-4.402 6.01975 2.98295e-19)
(-4.27448 5.84538 2.37164e-18)
(-4.15415 5.68083 0)
(-4.04041 5.52528 -2.75535e-18)
(-3.93274 5.37803 3.6894e-18)
(-3.83065 5.23843 -2.31296e-18)
(-3.73372 5.10588 -3.28487e-19)
(-3.64159 4.97988 2.92604e-18)
(-3.55388 4.85995 1.23017e-18)
(-3.4703 4.74565 0)
(-3.39057 4.63661 2.10232e-18)
(-3.31441 4.53247 -4.16775e-18)
(-3.2416 4.4329 1.54915e-18)
(-3.17192 4.33761 0)
(-3.10517 4.24633 0)
(-3.04117 4.15882 1.96908e-18)
(-2.97976 4.07484 1.25846e-18)
(-6.48663 7.33939 3.25711e-18)
(-6.24206 7.06267 -4.61401e-18)
(-6.01527 6.80606 6.10003e-18)
(-5.80438 6.56744 -1.30387e-18)
(-5.60777 6.34499 3.35128e-18)
(-5.42405 6.13712 -1.16173e-18)
(-5.25198 5.94243 1.06741e-18)
(-5.0905 5.75972 -1.00276e-18)
(-4.93865 5.5879 4.58643e-18)
(-4.79559 5.42604 -8.94424e-18)
(-4.66059 5.27329 4.35188e-18)
(-4.53299 5.12891 -7.9508e-19)
(-4.41218 4.99222 3.27515e-18)
(-4.29765 4.86263 -3.40818e-18)
(-4.18891 4.7396 6.78932e-19)
(-4.08554 4.62263 0)
(-3.98714 4.5113 -6.15085e-19)
(-3.89337 4.40521 2.25359e-18)
(-3.80391 4.30399 -2.35951e-18)
(-3.71848 4.20732 0)
(-3.63679 4.11489 0)
(-3.55861 4.02644 4.89949e-19)
(-3.48372 3.94171 -4.69539e-19)
(-3.41192 3.86047 0)
(-3.34302 3.78252 4.32366e-19)
(-7.13616 6.70957 4.27404e-18)
(-6.8671 6.4566 0)
(-6.61759 6.22201 0)
(-6.38559 6.00387 3.71428e-18)
(-6.16929 5.80051 -3.80252e-18)
(-5.96717 5.61047 1.89553e-18)
(-5.77788 5.43249 -2.05258e-18)
(-5.60022 5.26546 0)
(-5.43317 5.10838 5.53022e-18)
(-5.27579 4.96041 -3.85337e-18)
(-5.12727 4.82078 0)
(-4.98689 4.68879 4.34552e-18)
(-4.85399 4.56382 -2.93616e-18)
(-4.72798 4.44535 -7.1465e-19)
(-4.60835 4.33288 0)
(-4.49463 4.22595 -1.95679e-18)
(-4.38638 4.12418 2.99049e-19)
(-4.28322 4.02719 2.53067e-18)
(-4.18481 3.93465 2.66217e-18)
(-4.09082 3.84627 -4.16774e-18)
(-4.00095 3.76178 2.06086e-18)
(-3.91494 3.68092 -1.00412e-27)
(-3.83256 3.60346 4.69541e-19)
(-3.75357 3.52919 -3.03742e-18)
(-3.67777 3.45793 3.40686e-19)
(-7.7248 6.02251 -4.27401e-18)
(-7.43355 5.79544 0)
(-7.16346 5.58487 0)
(-6.91232 5.38907 1.30386e-18)
(-6.67818 5.20653 0)
(-6.45939 5.03595 -1.13854e-18)
(-6.25447 4.8762 -1.06742e-18)
(-6.06216 4.72627 -2.51028e-18)
(-5.88133 4.58529 1.64769e-18)
(-5.71097 4.45247 -8.899e-19)
(-5.5502 4.32713 -3.85748e-18)
(-5.39824 4.20865 4.51994e-19)
(-5.25438 4.09649 2.93616e-18)
(-5.11798 3.99015 7.14647e-19)
(-4.98848 3.88919 2.80443e-18)
(-4.86538 3.79321 -3.57182e-18)
(-4.7482 3.70186 0)
(-4.63654 3.6148 -2.2536e-18)
(-4.53 3.53174 3.90203e-18)
(-4.42825 3.45241 -2.20344e-18)
(-4.33097 3.37657 1.83806e-18)
(-4.23787 3.30399 -6.97803e-19)
(-4.1487 3.23446 -1.81054e-18)
(-4.06319 3.1678 3.03741e-18)
(-3.98114 3.10383 -3.63072e-18)
(-8.24753 5.28406 3.54593e-18)
(-7.93657 5.08484 -6.76353e-18)
(-7.64821 4.90009 1.40037e-18)
(-7.38007 4.72829 3.71426e-18)
(-7.13009 4.56814 -3.80254e-18)
(-6.8965 4.41847 1.13853e-18)
(-6.67772 4.27831 0)
(-6.47239 4.14676 0)
(-6.27932 4.02306 0)
(-6.09743 3.90653 8.89904e-19)
(-5.92578 3.79656 0)
(-5.76353 3.69261 -7.95083e-19)
(-5.60994 3.5942 0)
(-5.46431 3.5009 -3.02761e-18)
(-5.32605 3.41232 3.15483e-18)
(-5.19462 3.32811 3.24842e-18)
(-5.06951 3.24796 -2.7188e-18)
(-4.95029 3.17157 -2.25361e-18)
(-4.83655 3.0987 4.4618e-18)
(-4.72791 3.0291 -2.20345e-18)
(-4.62405 2.96256 0)
(-4.52465 2.89888 4.89948e-19)
(-4.42944 2.83787 0)
(-4.33815 2.77939 0)
(-4.25054 2.72326 0)
(4.92567 0.488753 9.02448e-20)
(4.83003 0.479265 0)
(4.73804 0.470137 9.6028e-20)
(4.64949 0.461347 0)
(4.56418 0.452887 -2.2674e-19)
(4.48195 0.444725 1.35838e-19)
(4.40263 0.436854 4.06497e-20)
(4.32608 0.429259 -1.22109e-19)
(4.25214 0.42192 -1.54687e-19)
(4.18068 0.414831 0)
(4.1116 0.407974 0)
(4.04475 0.401342 -9.58689e-20)
(3.98005 0.394922 9.50096e-20)
(3.91739 0.388705 -6.56456e-20)
(3.85667 0.382684 0)
(3.79781 0.376842 0)
(3.74072 0.371177 0)
(3.68532 0.365678 -7.25567e-20)
(3.63153 0.360342 5.90929e-20)
(3.57929 0.35516 2.55196e-21)
(3.52854 0.350121 6.61393e-20)
(3.4792 0.345226 0)
(3.43122 0.340464 -5.03608e-20)
(3.38454 0.335832 -7.24414e-21)
(3.33912 0.331328 6.23553e-20)
(4.91297 0.603237 0)
(4.81758 0.591524 0)
(4.72582 0.580258 5.78881e-20)
(4.63749 0.569412 -2.4418e-19)
(4.55241 0.558966 -1.70036e-27)
(4.47039 0.548894 -8.59293e-20)
(4.39128 0.539181 -8.29156e-20)
(4.31492 0.529805 0)
(4.24117 0.52075 1.90916e-27)
(4.1699 0.511999 0)
(4.10099 0.503537 0)
(4.03432 0.495352 -6.99825e-20)
(3.96978 0.487429 0)
(3.90728 0.479755 -1.18246e-27)
(3.84672 0.47232 -6.36222e-20)
(3.78801 0.46511 7.93877e-20)
(3.73107 0.458118 -2.1456e-19)
(3.67581 0.451333 -5.52789e-20)
(3.62216 0.444747 -1.23164e-19)
(3.57006 0.438349 8.32797e-20)
(3.51944 0.432132 1.27414e-19)
(3.47022 0.42609 -5.64135e-20)
(3.42237 0.420214 -1.71971e-19)
(3.37581 0.414497 -4.89989e-20)
(3.3305 0.408935 -1.08028e-19)
(4.8976 0.717393 1.80488e-19)
(4.80251 0.703464 0)
(4.71104 0.690066 0)
(4.62299 0.677167 9.24734e-20)
(4.53817 0.664743 2.26742e-19)
(4.45641 0.652768 -3.52122e-19)
(4.37754 0.641216 8.80823e-20)
(4.30142 0.630065 -1.55245e-19)
(4.2279 0.619296 1.93275e-19)
(4.15685 0.60889 -1.05841e-19)
(4.08816 0.598828 4.08874e-21)
(4.0217 0.589093 2.97518e-20)
(3.95737 0.579669 0)
(3.89506 0.570543 -6.56426e-20)
(3.83469 0.5617 6.3623e-20)
(3.77617 0.553126 -1.58776e-19)
(3.7194 0.544812 2.4955e-19)
(3.66431 0.536743 -9.26514e-20)
(3.61084 0.52891 0)
(3.5589 0.521302 5.47993e-20)
(3.50843 0.513908 -1.06512e-19)
(3.45937 0.506723 5.17791e-20)
(3.41166 0.499735 6.68313e-20)
(3.36525 0.492938 -1.16713e-19)
(3.32008 0.486322 0)
(4.87958 0.83116 0)
(4.78484 0.815023 1.99588e-19)
(4.69371 0.7995 0)
(4.60598 0.784557 3.30422e-19)
(4.52147 0.770163 -5.84935e-21)
(4.44001 0.756288 2.07878e-19)
(4.36143 0.742903 0)
(4.28559 0.729983 4.75276e-27)
(4.21235 0.717506 3.77378e-19)
(4.14156 0.705451 -2.20338e-19)
(4.07312 0.693794 -2.01375e-19)
(4.00691 0.682515 4.79384e-19)
(3.94281 0.671597 0)
(3.88074 0.661023 2.62573e-19)
(3.82059 0.650777 2.93504e-19)
(3.76228 0.640844 -6.23942e-21)
(3.70572 0.631211 -6.9988e-20)
(3.65083 0.621864 5.63443e-21)
(3.59755 0.612787 1.44232e-19)
(3.5458 0.603972 1.09601e-19)
(3.49552 0.595406 -1.27416e-19)
(3.44664 0.587082 4.63747e-21)
(3.39911 0.578986 4.42527e-21)
(3.35287 0.571111 1.87139e-20)
(3.30787 0.563445 -9.53819e-20)
(4.85892 0.944476 -1.72876e-19)
(4.76458 0.92614 -2.94488e-20)
(4.67383 0.908502 0)
(4.58647 0.891521 -1.8495e-19)
(4.50232 0.875166 0)
(4.42121 0.859397 -4.32543e-19)
(4.34297 0.844188 2.5746e-19)
(4.26745 0.829507 1.60111e-19)
(4.19451 0.81533 -3.77392e-19)
(4.12402 0.80163 4.3202e-19)
(4.05587 0.788382 -2.09553e-19)
(3.98994 0.775565 -3.31696e-19)
(3.92611 0.76316 1.90014e-19)
(3.8643 0.751144 -1.31284e-19)
(3.80441 0.739501 -1.27247e-19)
(3.74634 0.728215 1.23395e-19)
(3.69002 0.717269 1.51742e-19)
(3.63537 0.706647 -1.50745e-19)
(3.58232 0.696332 -1.38864e-19)
(3.53079 0.686316 2.84801e-20)
(3.48072 0.676584 1.06513e-19)
(3.43205 0.667122 -1.22159e-19)
(3.38472 0.657923 2.22329e-19)
(3.33868 0.648973 9.79938e-20)
(3.29387 0.640263 9.53827e-20)
(4.83563 1.05728 1.72882e-19)
(4.74173 1.03675 1.5592e-19)
(4.65142 1.01701 -6.28967e-19)
(4.56449 0.998004 -1.7248e-19)
(4.48074 0.979693 2.86957e-19)
(4.40002 0.96204 -1.71856e-19)
(4.32215 0.945015 -1.65831e-19)
(4.24699 0.928581 2.34492e-19)
(4.1744 0.912713 -3.8656e-19)
(4.10425 0.897375 -3.61208e-19)
(4.03643 0.882543 2.09553e-19)
(3.97081 0.868197 -1.39963e-19)
(3.90729 0.854309 -1.35519e-19)
(3.84578 0.840859 0)
(3.78617 0.827827 0)
(3.72838 0.815192 -2.4679e-19)
(3.67233 0.802937 3.20294e-20)
(3.61795 0.791044 -1.50742e-19)
(3.56515 0.779499 -2.51687e-19)
(3.51386 0.768287 5.10403e-21)
(3.46403 0.757392 4.86336e-21)
(3.4156 0.746802 -9.89179e-20)
(3.36849 0.736504 2.38811e-19)
(3.32267 0.726484 -3.4169e-19)
(3.27807 0.716733 -8.73095e-20)
(4.80972 1.16952 3.60978e-19)
(4.71633 1.14681 0)
(4.6265 1.12497 -3.0783e-19)
(4.54003 1.10395 4.88366e-19)
(4.45673 1.08369 0)
(4.37644 1.06416 1.71858e-19)
(4.29899 1.04533 1.6583e-19)
(4.22423 1.02715 0)
(4.15203 1.0096 3.77385e-19)
(4.08226 0.992633 -2.82485e-19)
(4.0148 0.976228 8.17739e-21)
(3.94953 0.960359 7.73235e-21)
(3.88635 0.944996 3.25543e-19)
(3.82517 0.930118 0)
(3.76588 0.915704 0)
(3.70841 0.901727 -3.53838e-20)
(3.65266 0.88817 1.57666e-19)
(3.59856 0.875017 0)
(3.54604 0.862245 1.12826e-19)
(3.49503 0.849842 1.32975e-19)
(3.44547 0.83779 -3.87108e-19)
(3.39729 0.826077 3.57151e-19)
(3.35044 0.814686 2.3437e-19)
(3.30487 0.803603 -2.33418e-19)
(3.26051 0.792818 -1.20674e-19)
(4.7812 1.28112 5.68546e-19)
(4.68837 1.25624 0)
(4.59907 1.23232 1.92062e-19)
(4.51311 1.20929 -4.75881e-19)
(4.43031 1.1871 4.65182e-19)
(4.35049 1.16571 -4.32562e-19)
(4.2735 1.14508 4.23301e-19)
(4.19919 1.12517 -1.60114e-19)
(4.12741 1.10594 -1.54685e-19)
(4.05806 1.08735 -1.49527e-19)
(3.991 1.06938 -1.44627e-19)
(3.92612 1.052 1.91733e-19)
(3.86332 1.03517 -3.25537e-19)
(3.80249 1.01888 -3.05509e-19)
(3.74355 1.00308 4.55863e-20)
(3.68642 0.987771 -1.23392e-19)
(3.631 0.972923 -1.19712e-19)
(3.57722 0.958515 -4.06414e-19)
(3.52502 0.944524 -1.021e-19)
(3.47431 0.930937 1.6656e-19)
(3.42504 0.917737 1.06514e-19)
(3.37715 0.904905 -3.47872e-19)
(3.33058 0.892425 5.78328e-19)
(3.28527 0.880286 -1.0645e-19)
(3.24118 0.868471 -1.28749e-19)
(4.7501 1.39202 -5.53327e-19)
(4.65787 1.36499 3.40293e-19)
(4.56915 1.339 -1.92058e-19)
(4.48375 1.31397 1.84946e-19)
(4.40149 1.28986 -4.53495e-19)
(4.32219 1.26663 4.43545e-19)
(4.24569 1.24421 -1.65829e-19)
(4.17187 1.22257 -7.43769e-20)
(4.10056 1.20168 6.09243e-19)
(4.03166 1.18148 -7.0809e-20)
(3.96503 1.16196 -5.67502e-20)
(3.90057 1.14307 5.31158e-19)
(3.83818 1.12479 2.63717e-19)
(3.77776 1.10708 -1.81146e-19)
(3.7192 1.08992 -2.0527e-19)
(3.66244 1.07328 4.53429e-19)
(3.60738 1.05715 -1.83776e-19)
(3.55395 1.04149 8.24116e-19)
(3.50209 1.02629 -1.75632e-19)
(3.45171 1.01153 1.09598e-19)
(3.40276 0.997186 -3.61348e-19)
(3.35518 0.983244 4.60713e-19)
(3.30891 0.969682 1.33655e-19)
(3.2639 0.956494 -2.33421e-19)
(3.22009 0.943654 -9.53811e-20)
(4.71642 1.50218 2.07574e-19)
(4.62484 1.47301 3.26069e-19)
(4.53676 1.44495 -1.33064e-20)
(4.45196 1.41795 -5.9436e-19)
(4.37028 1.39194 2.86965e-19)
(4.29155 1.36686 0)
(4.2156 1.34267 -2.4713e-19)
(4.14229 1.31932 2.44222e-19)
(4.07149 1.29677 1.54682e-19)
(4.00308 1.27498 -2.11685e-19)
(3.93692 1.25391 3.54176e-19)
(3.87292 1.23353 0)
(3.81097 1.21379 -2.60232e-27)
(3.75097 1.19468 1.31284e-19)
(3.69283 1.17617 4.5978e-19)
(3.63647 1.15822 -1.24793e-20)
(3.5818 1.14081 -3.15324e-19)
(3.52876 1.12391 -1.16187e-19)
(3.47726 1.1075 1.12826e-19)
(3.42724 1.09157 0)
(3.37864 1.0761 0)
(3.3314 1.06105 1.40767e-19)
(3.28545 1.04641 -4.77606e-19)
(3.24076 1.03218 3.31426e-19)
(3.19726 1.01833 0)
(4.68019 1.61152 2.07574e-19)
(4.58932 1.58023 3.2605e-19)
(4.50191 1.55013 6.29776e-20)
(4.41777 1.52116 -6.60841e-19)
(4.33671 1.49325 2.86961e-19)
(4.25858 1.46635 -3.43725e-19)
(4.18322 1.4404 0)
(4.11047 1.41535 -3.20232e-19)
(4.04022 1.39116 6.80106e-20)
(3.97233 1.36778 -8.6565e-21)
(3.90668 1.34518 -1.0462e-18)
(3.84317 1.32331 3.98928e-19)
(3.7817 1.30214 -4.06573e-19)
(3.72216 1.28164 0)
(3.66447 1.26178 -3.81738e-19)
(3.60854 1.24252 0)
(3.55429 1.22384 -2.3942e-19)
(3.50165 1.20571 0)
(3.45055 1.18812 -1.12826e-19)
(3.40091 1.17102 0)
(3.35268 1.15442 -2.13027e-19)
(3.3058 1.13828 -2.44315e-19)
(3.26021 1.12258 4.17914e-20)
(3.21586 1.10731 -2.24964e-19)
(3.1727 1.09245 1.98839e-19)
(4.64142 1.71999 -5.41729e-20)
(4.5513 1.68658 0)
(4.46461 1.65446 -7.62842e-20)
(4.38117 1.62354 3.57412e-19)
(4.30079 1.59376 -3.68136e-19)
(4.22331 1.56505 7.20376e-20)
(4.14857 1.53734 0)
(4.07642 1.51061 8.57348e-20)
(4.00675 1.48479 5.41243e-19)
(3.93942 1.45984 0)
(3.87432 1.43572 2.89265e-19)
(3.81134 1.41238 -2.79921e-19)
(3.75037 1.38979 6.36439e-19)
(3.69133 1.3679 -7.10731e-19)
(3.63411 1.34671 3.4567e-19)
(3.57865 1.32615 0)
(3.52485 1.30621 3.0348e-19)
(3.47264 1.28687 -1.12688e-20)
(3.42196 1.26809 -5.66182e-19)
(3.37274 1.24984 7.6134e-19)
(3.32491 1.23212 -2.64561e-19)
(3.27842 1.2149 0)
(3.23321 1.19814 -6.41792e-28)
(3.18922 1.18184 0)
(3.14642 1.16597 -1.65474e-19)
(4.60014 1.82752 -3.45759e-19)
(4.51083 1.79203 -5.88982e-20)
(4.42491 1.7579 -3.07836e-19)
(4.34221 1.72505 3.03413e-19)
(4.26254 1.6934 6.31705e-19)
(4.18574 1.66289 -2.71675e-19)
(4.11167 1.63346 0)
(4.04017 1.60506 0)
(3.97112 1.57762 -3.0937e-19)
(3.90439 1.55111 4.23384e-19)
(3.83986 1.52548 -1.63548e-20)
(3.77744 1.50068 -1.19001e-19)
(3.71701 1.47668 0)
(3.6585 1.45342 0)
(3.60179 1.43091 8.41508e-19)
(3.54682 1.40906 -3.30039e-19)
(3.4935 1.38788 2.3942e-19)
(3.44176 1.36733 0)
(3.39153 1.34737 0)
(3.34274 1.32799 -2.19207e-19)
(3.29534 1.30916 4.67867e-19)
(3.24926 1.29085 -9.27447e-21)
(3.20445 1.27305 -4.17913e-20)
(3.16086 1.25573 0)
(3.11844 1.23888 -2.1607e-19)
(4.55637 1.93407 0)
(4.46791 1.89651 1.12444e-18)
(4.38281 1.86039 -3.21142e-19)
(4.30089 1.82562 0)
(4.22198 1.79212 2.75266e-19)
(4.14592 1.75984 -9.40163e-20)
(4.07255 1.72869 -5.14931e-19)
(4.00173 1.69863 0)
(3.93333 1.6696 4.45395e-19)
(3.86724 1.64155 -7.39729e-19)
(3.80333 1.61442 0)
(3.7415 1.58817 -3.83477e-19)
(3.68165 1.56277 1.46369e-20)
(3.62369 1.53816 3.62314e-19)
(3.56752 1.51433 -2.5449e-19)
(3.51307 1.49121 0)
(3.46026 1.46879 3.03486e-19)
(3.40901 1.44704 -5.91696e-19)
(3.35926 1.42592 2.88449e-19)
(3.31094 1.40541 -2.65957e-19)
(3.26399 1.38548 2.6456e-19)
(3.21835 1.3661 -2.44318e-19)
(3.17396 1.34727 2.43227e-19)
(3.13079 1.32894 0)
(3.08877 1.31111 1.9077e-19)
(4.51014 2.03956 5.41707e-20)
(4.42257 1.99996 -3.99188e-19)
(4.33833 1.96187 3.84113e-19)
(4.25725 1.9252 -3.69895e-19)
(4.17914 1.88988 5.50536e-19)
(4.10385 1.85583 3.21733e-19)
(4.03122 1.82299 -1.00918e-18)
(3.96112 1.79129 4.88448e-19)
(3.89342 1.76067 -4.45402e-19)
(3.82799 1.73109 1.1631e-18)
(3.76473 1.70248 -4.19107e-19)
(3.70353 1.6748 2.79929e-19)
(3.64429 1.64801 0)
(3.58692 1.62207 2.62577e-19)
(3.53132 1.59693 3.32517e-19)
(3.47742 1.57255 -3.30028e-19)
(3.42515 1.54891 2.3942e-19)
(3.37442 1.52597 0)
(3.32517 1.5037 -2.77753e-19)
(3.27734 1.48207 5.421e-19)
(3.23086 1.46106 2.03293e-19)
(3.18569 1.44062 -4.60714e-19)
(3.14175 1.42076 2.0144e-19)
(3.09901 1.40143 0)
(3.05742 1.38262 2.16061e-19)
(4.46146 2.14396 -7.60889e-19)
(4.37483 2.10233 1.42206e-20)
(4.29151 2.06229 -4.47098e-19)
(4.2113 2.02374 3.69898e-19)
(4.13403 1.98661 5.50537e-19)
(4.05955 1.95082 -5.4336e-19)
(3.98771 1.9163 8.25918e-19)
(3.91837 1.88297 -4.88436e-19)
(3.8514 1.85079 -4.45377e-19)
(3.78668 1.8197 7.39765e-19)
(3.7241 1.78962 0)
(3.66356 1.76053 -4.04634e-27)
(3.60495 1.73236 0)
(3.5482 1.70509 1.08698e-26)
(3.49321 1.67867 2.54489e-19)
(3.43989 1.65304 0)
(3.38818 1.6282 -1.22424e-26)
(3.338 1.60408 0)
(3.28928 1.58067 2.77741e-19)
(3.24197 1.55793 -3.22905e-19)
(3.19599 1.53584 5.15294e-20)
(3.1513 1.51436 2.07105e-19)
(3.10784 1.49348 -4.35805e-19)
(3.06557 1.47316 6.54367e-19)
(3.02443 1.45339 -2.24121e-19)
(4.41036 2.24719 -3.45758e-19)
(4.32473 2.20356 1.42204e-20)
(4.24236 2.16159 7.05277e-19)
(4.16307 2.12119 0)
(4.08668 2.08227 3.56454e-19)
(4.01306 2.04476 0)
(3.94203 2.00857 -3.31663e-19)
(3.87349 1.97364 7.89201e-19)
(3.80728 1.9399 -1.83475e-20)
(3.7433 1.90731 -4.40652e-19)
(3.68144 1.87579 0)
(3.6216 1.8453 -6.63378e-19)
(3.56367 1.81578 6.5108e-19)
(3.50756 1.78719 -1.57869e-26)
(3.4532 1.75949 1.33283e-26)
(3.40049 1.73264 -3.17547e-19)
(3.34937 1.70659 3.79393e-19)
(3.29977 1.68132 2.2111e-19)
(3.25161 1.65678 -5.66189e-19)
(3.20484 1.63294 2.76159e-19)
(3.15939 1.60979 2.54821e-19)
(3.11521 1.58728 -2.53606e-19)
(3.07225 1.56539 4.35802e-19)
(3.03046 1.5441 -4.29403e-19)
(2.98979 1.52337 1.90773e-19)
(4.35688 2.3492 7.60905e-19)
(4.27228 2.30359 5.88989e-20)
(4.19091 2.25972 9.99807e-19)
(4.11258 2.21748 -2.3693e-19)
(4.03712 2.1768 -1.4316e-26)
(3.96439 2.13758 3.43706e-19)
(3.89423 2.09975 3.31646e-19)
(3.82652 2.06324 -3.20221e-19)
(3.76112 2.02798 4.45406e-19)
(3.69791 1.9939 -4.40675e-19)
(3.6368 1.96095 -1.13499e-19)
(3.57768 1.92907 6.78849e-19)
(3.52045 1.89821 -5.64315e-27)
(3.46503 1.86833 -3.48445e-19)
(3.41132 1.83937 -4.95846e-19)
(3.35926 1.81129 3.30037e-19)
(3.30875 1.78407 5.42908e-19)
(3.25975 1.75764 -3.01489e-19)
(3.21218 1.73199 -2.77722e-19)
(3.16597 1.70708 5.6965e-20)
(3.12108 1.68287 -4.18017e-20)
(3.07743 1.65934 4.64838e-20)
(3.035 1.63645 -2.01428e-19)
(2.99371 1.61419 1.9599e-19)
(2.95353 1.59253 -1.76866e-28)
(4.30103 2.44995 -4.15158e-19)
(4.21752 2.40238 4.99764e-27)
(4.13719 2.35662 -3.84113e-19)
(4.05987 2.31258 -9.51763e-19)
(3.98538 2.27016 2.33962e-20)
(3.91358 2.22925 1.99648e-19)
(3.84432 2.1898 -3.31672e-19)
(3.77747 2.15172 0)
(3.71291 2.11494 3.09367e-19)
(3.65051 2.07941 -4.23368e-19)
(3.59019 2.04504 1.2985e-19)
(3.53183 2.01179 -2.79933e-19)
(3.47533 1.97962 -8.15036e-28)
(3.42062 1.94845 -2.6257e-19)
(3.3676 1.91825 5.08991e-19)
(3.3162 1.88897 0)
(3.26635 1.86058 -5.42877e-19)
(3.21797 1.83302 6.91161e-20)
(3.17101 1.80627 2.2564e-19)
(3.1254 1.78029 0)
(3.08108 1.75504 -1.71226e-19)
(3.03799 1.7305 -2.90799e-19)
(2.9961 1.70663 -2.25535e-19)
(2.95534 1.68342 2.70853e-19)
(2.91567 1.66083 -3.81521e-19)
(4.24286 2.54937 3.60976e-19)
(4.16048 2.49987 2.52944e-19)
(4.08124 2.45225 -6.42304e-19)
(4.00496 2.40642 0)
(3.93147 2.36227 -9.06956e-19)
(3.86065 2.31971 5.43355e-19)
(3.79232 2.27866 0)
(3.72638 2.23903 0)
(3.66269 2.20077 -3.09364e-19)
(3.60114 2.16379 -2.99067e-19)
(3.54163 2.12802 0)
(3.48405 2.09343 -3.83477e-19)
(3.42832 2.05994 1.08984e-19)
(3.37435 2.02751 0)
(3.32205 1.99609 -2.54492e-19)
(3.27135 1.96563 0)
(3.22217 1.93607 3.03482e-19)
(3.17445 1.9074 -3.01501e-19)
(3.12812 1.87956 5.2089e-20)
(3.08312 1.85253 -1.0208e-20)
(3.0394 1.82626 -2.64563e-19)
(2.9969 1.80072 -4.88627e-19)
(2.95557 1.77589 4.86445e-19)
(2.91537 1.75173 -6.45937e-19)
(2.87624 1.72822 6.39031e-19)
(4.18239 2.6474 -3.06807e-19)
(4.10118 2.596 6.52115e-19)
(4.02307 2.54656 -2.58163e-19)
(3.94788 2.49896 0)
(3.87545 2.45311 3.56436e-19)
(3.80563 2.40892 5.21392e-19)
(3.73828 2.36629 -5.14941e-19)
(3.67327 2.32514 0)
(3.61049 2.28539 4.45383e-19)
(3.54981 2.247 -1.41615e-19)
(3.49116 2.20986 2.89252e-19)
(3.4344 2.17394 0)
(3.37946 2.13916 2.71055e-19)
(3.32626 2.10548 3.48436e-19)
(3.2747 2.07285 -4.23682e-19)
(3.22472 2.04122 5.76808e-19)
(3.17625 2.01053 0)
(3.12921 1.98075 2.32378e-19)
(3.08354 1.95184 0)
(3.03918 1.92377 2.19202e-19)
(2.99608 1.89649 4.26047e-19)
(2.95419 1.86997 -4.8863e-19)
(2.91345 1.84418 1.15663e-18)
(2.87382 1.81909 -2.70855e-19)
(2.83525 1.79468 0)
(4.11966 2.74401 -4.15144e-19)
(4.03967 2.69073 0)
(3.96272 2.63948 -3.84124e-19)
(3.88866 2.59015 0)
(3.81731 2.54262 -2.7823e-26)
(3.74854 2.49682 0)
(3.6822 2.45263 0)
(3.61817 2.40998 0)
(3.55633 2.36879 4.454e-19)
(3.49657 2.32899 -7.39716e-19)
(3.43879 2.2905 -1.75752e-19)
(3.38289 2.25326 -3.98924e-19)
(3.32877 2.21722 -2.7105e-19)
(3.27637 2.18231 0)
(3.22558 2.14849 -2.54498e-19)
(3.17635 2.1157 3.17557e-19)
(3.1286 2.08389 -3.15339e-19)
(3.08227 2.05303 -2.32372e-19)
(3.03728 2.02306 -2.77742e-19)
(2.99359 1.99396 5.88859e-19)
(2.95114 1.96569 -1.94532e-20)
(2.90988 1.9382 -7.14273e-19)
(2.86975 1.91147 -2.01445e-19)
(2.83071 1.88547 -2.53949e-19)
(2.79272 1.86016 2.57504e-19)
(4.05469 2.83913 4.15143e-19)
(3.97596 2.784 3.99185e-19)
(3.90023 2.73098 -9.99818e-19)
(3.82734 2.67993 3.94828e-19)
(3.75712 2.63076 5.7394e-19)
(3.68943 2.58336 8.65094e-19)
(3.62414 2.53765 -1.83264e-19)
(3.56111 2.49352 0)
(3.50025 2.4509 3.09383e-19)
(3.44143 2.40972 0)
(3.38456 2.36989 5.78515e-19)
(3.32954 2.33137 2.79918e-19)
(3.27628 2.29408 3.65382e-19)
(3.2247 2.25796 -6.24888e-19)
(3.17472 2.22296 0)
(3.12626 2.18904 2.14527e-27)
(3.07927 2.15613 3.03485e-19)
(3.03366 2.12419 -5.91719e-19)
(2.98939 2.09319 2.8847e-19)
(2.94639 2.06308 0)
(2.90461 2.03383 -7.22695e-19)
(2.86399 2.00539 2.25671e-19)
(2.82449 1.97773 6.87898e-19)
(2.78607 1.95083 -1.9599e-19)
(2.74868 1.92465 1.90764e-19)
(3.98753 2.93271 -1.13713e-18)
(3.9101 2.87576 -1.05132e-18)
(3.83563 2.82099 1.02641e-18)
(3.76394 2.76826 -9.51762e-19)
(3.69489 2.71748 5.73917e-19)
(3.62832 2.66851 -6.87429e-19)
(3.56411 2.62129 -3.31663e-19)
(3.50213 2.57571 3.20226e-19)
(3.44227 2.53169 1.36027e-19)
(3.38443 2.48914 -1.41613e-19)
(3.3285 2.44801 -4.51393e-27)
(3.27439 2.40821 -2.7993e-19)
(3.22201 2.36969 -9.43501e-20)
(3.17128 2.33238 3.62292e-19)
(3.12213 2.29623 0)
(3.07448 2.26119 -4.93564e-19)
(3.02826 2.22719 0)
(2.98341 2.19421 0)