/*--------------------------------*- C++ -*----------------------------------*\
| =========                 |                                                 |
| \\      /  F ield         | OpenFOAM: The Open Source CFD Toolbox           |
|  \\    /   O peration     | Version:  1.5-dev                               |
|   \\  /    A nd           | Web:      http://www.OpenFOAM.org               |
|    \\/     M anipulation  |                                                 |
\*---------------------------------------------------------------------------*/
FoamFile
{
    version     2.0;
    format      ascii;
    class       volScalarField;
    location    "1";
    object      lambdaEff;
}
// * * * * * * * * * * * * * * * * * * * * * * * * * * * * * * * * * * * * * //

dimensions      [0 0 1 0 0 0 0];

internalField   nonuniform List<scalar> 
108000
(
0.00356893
0.00359018
0.0035516
0.00358044
0.0035531
0.0035717
0.00355617
0.00356886
0.00355984
0.00356801
0.00356324
0.00356789
0.00356556
0.00356762
0.00356694
0.00356694
0.00356762
0.00356556
0.00356789
0.00356324
0.00356801
0.00355984
0.00356886
0.00355617
0.0035717
0.0035531
0.00358044
0.0035516
0.00359018
0.00356893
0.00358947
0.00361786
0.00358751
0.00361116
0.00359209
0.00360521
0.00359399
0.00360154
0.00359547
0.0036001
0.00359651
0.00359927
0.00359753
0.00359874
0.00359822
0.00359822
0.00359874
0.00359753
0.00359927
0.00359651
0.0036001
0.00359547
0.00360154
0.00359399
0.00360521
0.00359209
0.00361116
0.00358751
0.00361786
0.00358947
0.00355161
0.00358872
0.00356556
0.00358828
0.00357098
0.00358484
0.00357274
0.00358202
0.0035738
0.00358048
0.00357521
0.00357943
0.00357667
0.0035786
0.00357775
0.00357775
0.0035786
0.00357667
0.00357943
0.00357521
0.00358048
0.0035738
0.00358202
0.00357274
0.00358484
0.00357098
0.00358828
0.00356556
0.00358872
0.00355161
0.00357975
0.0036115
0.00358758
0.00361318
0.00359749
0.00361042
0.0036006
0.00360868
0.00360264
0.00360728
0.00360362
0.00360643
0.00360452
0.0036058
0.00360519
0.00360519
0.0036058
0.00360452
0.00360643
0.00360362
0.00360728
0.00360264
0.00360868
0.0036006
0.00361042
0.00359749
0.00361318
0.00358758
0.0036115
0.00357975
0.00355263
0.00359323
0.00357093
0.00359812
0.00358066
0.0035952
0.0035845
0.00359273
0.0035857
0.00359111
0.00358664
0.00359015
0.00358774
0.00358938
0.00358862
0.00358862
0.00358938
0.00358774
0.00359015
0.00358664
0.00359111
0.0035857
0.00359273
0.0035845
0.0035952
0.00358066
0.00359812
0.00357093
0.00359323
0.00355263
0.00357077
0.00360605
0.00358471
0.00361074
0.0035944
0.00360845
0.0035987
0.00360684
0.00360067
0.00360552
0.00360185
0.00360476
0.00360267
0.00360407
0.00360339
0.00360339
0.00360407
0.00360267
0.00360476
0.00360185
0.00360552
0.00360067
0.00360684
0.0035987
0.00360845
0.0035944
0.00361074
0.00358471
0.00360605
0.00357077
0.00355528
0.00359513
0.00357239
0.00360124
0.00358463
0.00359889
0.00358855
0.00359689
0.00359026
0.00359536
0.00359134
0.00359451
0.00359226
0.00359379
0.00359306
0.00359306
0.00359379
0.00359226
0.00359451
0.00359134
0.00359536
0.00359026
0.00359689
0.00358855
0.00359889
0.00358463
0.00360124
0.00357239
0.00359513
0.00355528
0.00356786
0.00360253
0.00358171
0.00360945
0.00359261
0.00360713
0.00359693
0.00360539
0.00359902
0.00360399
0.00360014
0.00360324
0.00360103
0.00360252
0.0036018
0.0036018
0.00360252
0.00360103
0.00360324
0.00360014
0.00360399
0.00359902
0.00360539
0.00359693
0.00360713
0.00359261
0.00360945
0.00358171
0.00360253
0.00356786
0.00355878
0.00359658
0.0035737
0.00360323
0.00358576
0.00360114
0.00359014
0.00359908
0.00359224
0.00359741
0.00359335
0.00359658
0.00359426
0.00359582
0.00359508
0.00359508
0.00359582
0.00359426
0.00359658
0.00359335
0.00359741
0.00359224
0.00359908
0.00359014
0.00360114
0.00358576
0.00360323
0.0035737
0.00359658
0.00355878
0.00356717
0.00360124
0.00358033
0.00360803
0.0035912
0.00360606
0.00359559
0.00360428
0.00359766
0.00360277
0.00359876
0.003602
0.00359968
0.00360124
0.00360049
0.00360049
0.00360124
0.00359968
0.003602
0.00359876
0.00360277
0.00359766
0.00360428
0.00359559
0.00360606
0.0035912
0.00360803
0.00358033
0.00360124
0.00356717
0.00356225
0.00359754
0.00357495
0.00360441
0.00358681
0.00360231
0.00359139
0.00360031
0.00359346
0.00359863
0.00359453
0.0035978
0.00359544
0.00359703
0.00359627
0.00359627
0.00359703
0.00359544
0.0035978
0.00359453
0.00359863
0.00359346
0.00360031
0.00359139
0.00360231
0.00358681
0.00360441
0.00357495
0.00359754
0.00356225
0.00356751
0.00360057
0.00357951
0.00360744
0.00359056
0.00360552
0.00359491
0.00360375
0.00359703
0.00360223
0.00359812
0.00360145
0.00359907
0.00360069
0.00359991
0.00359991
0.00360069
0.00359907
0.00360145
0.00359812
0.00360223
0.00359703
0.00360375
0.00359491
0.00360552
0.00359056
0.00360744
0.00357951
0.00360057
0.00356751
0.0035648
0.00359848
0.00357625
0.00360515
0.00358768
0.00360302
0.00359223
0.0036011
0.00359427
0.00359946
0.00359533
0.00359865
0.00359626
0.00359785
0.00359707
0.00359707
0.00359785
0.00359626
0.00359865
0.00359533
0.00359946
0.00359427
0.0036011
0.00359223
0.00360302
0.00358768
0.00360515
0.00357625
0.00359848
0.0035648
0.00356802
0.00360032
0.00357907
0.0036071
0.00359011
0.00360514
0.00359456
0.00360339
0.00359665
0.00360186
0.00359775
0.0036011
0.00359869
0.0036003
0.00359953
0.00359953
0.0036003
0.00359869
0.0036011
0.00359775
0.00360186
0.00359665
0.00360339
0.00359456
0.00360514
0.00359011
0.0036071
0.00357907
0.00360032
0.00356802
0.00356654
0.0035991
0.00357715
0.00360566
0.00358833
0.00360353
0.00359284
0.00360167
0.00359487
0.00360008
0.00359593
0.00359926
0.00359685
0.00359846
0.00359768
0.00359768
0.00359846
0.00359685
0.00359926
0.00359593
0.00360008
0.00359487
0.00360167
0.00359284
0.00360353
0.00358833
0.00360566
0.00357715
0.0035991
0.00356654
0.00356848
0.00360022
0.00357883
0.00360689
0.00358984
0.00360486
0.00359432
0.00360312
0.00359637
0.00360161
0.00359747
0.00360084
0.00359841
0.00360003
0.00359925
0.00359925
0.00360003
0.00359841
0.00360084
0.00359747
0.00360161
0.00359637
0.00360312
0.00359432
0.00360486
0.00358984
0.00360689
0.00357883
0.00360022
0.00356848
0.0035677
0.00359952
0.00357773
0.00360604
0.0035888
0.00360391
0.0035933
0.0036021
0.0035953
0.00360056
0.0035964
0.00359976
0.00359731
0.00359893
0.00359815
0.00359815
0.00359893
0.00359731
0.00359976
0.0035964
0.00360056
0.0035953
0.0036021
0.0035933
0.00360391
0.0035888
0.00360604
0.00357773
0.00359952
0.0035677
0.00356885
0.00360016
0.0035787
0.00360676
0.00358967
0.00360469
0.00359417
0.00360296
0.0035962
0.00360149
0.0035973
0.00360067
0.00359824
0.00359987
0.00359909
0.00359909
0.00359987
0.00359824
0.00360067
0.0035973
0.00360149
0.0035962
0.00360296
0.00359417
0.00360469
0.00358967
0.00360676
0.0035787
0.00360016
0.00356885
0.00356848
0.00359978
0.00357811
0.00360629
0.0035891
0.00360416
0.0035936
0.00360238
0.0035956
0.00360089
0.00359668
0.00360007
0.00359763
0.00359925
0.00359846
0.00359846
0.00359925
0.00359763
0.00360007
0.00359668
0.00360089
0.0035956
0.00360238
0.0035936
0.00360416
0.0035891
0.00360629
0.00357811
0.00359978
0.00356848
0.00356914
0.00360013
0.00357863
0.00360669
0.00358957
0.0036046
0.00359407
0.00360287
0.00359608
0.00360142
0.00359719
0.00360059
0.00359815
0.00359978
0.00359899
0.00359899
0.00359978
0.00359815
0.00360059
0.00359719
0.00360142
0.00359608
0.00360287
0.00359407
0.0036046
0.00358957
0.00360669
0.00357863
0.00360013
0.00356914
0.00356899
0.00359995
0.00357834
0.00360645
0.00358928
0.00360432
0.00359378
0.00360257
0.00359577
0.00360111
0.00359687
0.00360028
0.00359783
0.00359945
0.00359867
0.00359867
0.00359945
0.00359783
0.00360028
0.00359687
0.00360111
0.00359577
0.00360257
0.00359378
0.00360432
0.00358928
0.00360645
0.00357834
0.00359995
0.00356899
0.00356936
0.00360013
0.00357861
0.00360666
0.00358952
0.00360455
0.00359402
0.00360283
0.00359602
0.00360139
0.00359714
0.00360055
0.0035981
0.00359973
0.00359894
0.00359894
0.00359973
0.0035981
0.00360055
0.00359714
0.00360139
0.00359602
0.00360283
0.00359402
0.00360455
0.00358952
0.00360666
0.00357861
0.00360013
0.00356936
0.00356933
0.00360004
0.00357848
0.00360655
0.00358939
0.00360442
0.00359389
0.00360269
0.00359587
0.00360125
0.00359699
0.00360041
0.00359795
0.00359958
0.00359879
0.00359879
0.00359958
0.00359795
0.00360041
0.00359699
0.00360125
0.00359587
0.00360269
0.00359389
0.00360442
0.00358939
0.00360655
0.00357848
0.00360004
0.00356933
0.00356953
0.00360014
0.0035786
0.00360665
0.0035895
0.00360453
0.003594
0.00360281
0.003596
0.00360138
0.00359712
0.00360054
0.00359808
0.00359972
0.00359893
0.00359893
0.00359972
0.00359808
0.00360054
0.00359712
0.00360138
0.003596
0.00360281
0.003594
0.00360453
0.0035895
0.00360665
0.0035786
0.00360014
0.00356953
0.00356955
0.0036001
0.00357855
0.0036066
0.00358945
0.00360448
0.00359395
0.00360276
0.00359592
0.00360134
0.00359705
0.00360048
0.00359802
0.00359965
0.00359886
0.00359886
0.00359965
0.00359802
0.00360048
0.00359705
0.00360134
0.00359592
0.00360276
0.00359395
0.00360448
0.00358945
0.0036066
0.00357855
0.0036001
0.00356955
0.00356966
0.00360015
0.00357861
0.00360665
0.0035895
0.00360453
0.003594
0.00360281
0.00359598
0.0036014
0.00359711
0.00360054
0.00359808
0.00359972
0.00359893
0.00359893
0.00359972
0.00359808
0.00360054
0.00359711
0.0036014
0.00359598
0.00360281
0.003594
0.00360453
0.0035895
0.00360665
0.00357861
0.00360015
0.00356966
0.00356968
0.00360014
0.0035786
0.00360663
0.00358948
0.00360451
0.00359398
0.00360279
0.00359596
0.00360138
0.00359709
0.00360052
0.00359806
0.00359969
0.0035989
0.0035989
0.00359969
0.00359806
0.00360052
0.00359709
0.00360138
0.00359596
0.00360279
0.00359398
0.00360451
0.00358948
0.00360663
0.0035786
0.00360014
0.00356968
0.00356973
0.00360015
0.00357862
0.00360665
0.0035895
0.00360453
0.003594
0.00360282
0.00359598
0.0036014
0.00359711
0.00360055
0.00359808
0.00359972
0.00359893
0.00359893
0.00359972
0.00359808
0.00360055
0.00359711
0.0036014
0.00359598
0.00360282
0.003594
0.00360453
0.0035895
0.00360665
0.00357862
0.00360015
0.00356973
0.00356975
0.00360015
0.00357862
0.00360664
0.00358949
0.00360452
0.00359399
0.00360281
0.00359597
0.0036014
0.00359711
0.00360054
0.00359808
0.00359971
0.00359892
0.00359892
0.00359971
0.00359808
0.00360054
0.00359711
0.0036014
0.00359597
0.00360281
0.00359399
0.00360452
0.00358949
0.00360664
0.00357862
0.00360015
0.00356975
0.00356977
0.00360016
0.00357862
0.00360665
0.0035895
0.00360453
0.003594
0.00360282
0.00359598
0.00360141
0.00359711
0.00360055
0.00359808
0.00359972
0.00359893
0.00359893
0.00359972
0.00359808
0.00360055
0.00359711
0.00360141
0.00359598
0.00360282
0.003594
0.00360453
0.0035895
0.00360665
0.00357862
0.00360016
0.00356977
0.00356977
0.00360016
0.00357862
0.00360665
0.0035895
0.00360453
0.003594
0.00360282
0.00359598
0.00360141
0.00359711
0.00360055
0.00359808
0.00359972
0.00359893
0.00359893
0.00359972
0.00359808
0.00360055
0.00359711
0.00360141
0.00359598
0.00360282
0.003594
0.00360453
0.0035895
0.00360665
0.00357862
0.00360016
0.00356977
0.00356975
0.00360015
0.00357862
0.00360664
0.00358949
0.00360452
0.00359399
0.00360281
0.00359597
0.0036014
0.00359711
0.00360054
0.00359808
0.00359971
0.00359892
0.00359892
0.00359971
0.00359808
0.00360054
0.00359711
0.0036014
0.00359597
0.00360281
0.00359399
0.00360452
0.00358949
0.00360664
0.00357862
0.00360015
0.00356975
0.00356973
0.00360015
0.00357862
0.00360665
0.0035895
0.00360453
0.003594
0.00360282
0.00359598
0.0036014
0.00359711
0.00360055
0.00359808
0.00359972
0.00359893
0.00359893
0.00359972
0.00359808
0.00360055
0.00359711
0.0036014
0.00359598
0.00360282
0.003594
0.00360453
0.0035895
0.00360665
0.00357862
0.00360015
0.00356973
0.00356968
0.00360014
0.0035786
0.00360663
0.00358948
0.00360451
0.00359398
0.00360279
0.00359596
0.00360138
0.00359709
0.00360052
0.00359806
0.00359969
0.0035989
0.0035989
0.00359969
0.00359806
0.00360052
0.00359709
0.00360138
0.00359596
0.00360279
0.00359398
0.00360451
0.00358948
0.00360663
0.0035786
0.00360014
0.00356968
0.00356966
0.00360015
0.00357861
0.00360665
0.0035895
0.00360453
0.003594
0.00360281
0.00359598
0.0036014
0.00359711
0.00360054
0.00359808
0.00359972
0.00359893
0.00359893
0.00359972
0.00359808
0.00360054
0.00359711
0.0036014
0.00359598
0.00360281
0.003594
0.00360453
0.0035895
0.00360665
0.00357861
0.00360015
0.00356966
0.00356955
0.0036001
0.00357855
0.0036066
0.00358945
0.00360448
0.00359395
0.00360276
0.00359592
0.00360134
0.00359705
0.00360048
0.00359802
0.00359965
0.00359886
0.00359886
0.00359965
0.00359802
0.00360048
0.00359705
0.00360134
0.00359592
0.00360276
0.00359395
0.00360448
0.00358945
0.0036066
0.00357855
0.0036001
0.00356955
0.00356953
0.00360014
0.0035786
0.00360665
0.0035895
0.00360453
0.003594
0.00360281
0.003596
0.00360138
0.00359712
0.00360054
0.00359808
0.00359972
0.00359893
0.00359893
0.00359972
0.00359808
0.00360054
0.00359712
0.00360138
0.003596
0.00360281
0.003594
0.00360453
0.0035895
0.00360665
0.0035786
0.00360014
0.00356953
0.00356933
0.00360004
0.00357848
0.00360655
0.00358939
0.00360442
0.00359389
0.00360269
0.00359587
0.00360125
0.00359699
0.00360041
0.00359795
0.00359958
0.00359879
0.00359879
0.00359958
0.00359795
0.00360041
0.00359699
0.00360125
0.00359587
0.00360269
0.00359389
0.00360442
0.00358939
0.00360655
0.00357848
0.00360004
0.00356933
0.00356936
0.00360013
0.00357861
0.00360666
0.00358952
0.00360455
0.00359402
0.00360283
0.00359602
0.00360139
0.00359714
0.00360055
0.0035981
0.00359973
0.00359894
0.00359894
0.00359973
0.0035981
0.00360055
0.00359714
0.00360139
0.00359602
0.00360283
0.00359402
0.00360455
0.00358952
0.00360666
0.00357861
0.00360013
0.00356936
0.00356899
0.00359995
0.00357834
0.00360645
0.00358928
0.00360432
0.00359378
0.00360257
0.00359577
0.00360111
0.00359687
0.00360028
0.00359783
0.00359945
0.00359867
0.00359867
0.00359945
0.00359783
0.00360028
0.00359687
0.00360111
0.00359577
0.00360257
0.00359378
0.00360432
0.00358928
0.00360645
0.00357834
0.00359995
0.00356899
0.00356914
0.00360013
0.00357863
0.00360669
0.00358957
0.0036046
0.00359407
0.00360287
0.00359608
0.00360142
0.00359719
0.00360059
0.00359815
0.00359978
0.00359899
0.00359899
0.00359978
0.00359815
0.00360059
0.00359719
0.00360142
0.00359608
0.00360287
0.00359407
0.0036046
0.00358957
0.00360669
0.00357863
0.00360013
0.00356914
0.00356848
0.00359978
0.00357811
0.00360629
0.0035891
0.00360416
0.0035936
0.00360238
0.0035956
0.00360089
0.00359668
0.00360007
0.00359763
0.00359925
0.00359846
0.00359846
0.00359925
0.00359763
0.00360007
0.00359668
0.00360089
0.0035956
0.00360238
0.0035936
0.00360416
0.0035891
0.00360629
0.00357811
0.00359978
0.00356848
0.00356885
0.00360016
0.0035787
0.00360676
0.00358967
0.00360469
0.00359417
0.00360296
0.0035962
0.00360149
0.0035973
0.00360067
0.00359824
0.00359987
0.00359909
0.00359909
0.00359987
0.00359824
0.00360067
0.0035973
0.00360149
0.0035962
0.00360296
0.00359417
0.00360469
0.00358967
0.00360676
0.0035787
0.00360016
0.00356885
0.0035677
0.00359952
0.00357773
0.00360604
0.0035888
0.00360391
0.0035933
0.0036021
0.0035953
0.00360056
0.0035964
0.00359976
0.00359731
0.00359893
0.00359815
0.00359815
0.00359893
0.00359731
0.00359976
0.0035964
0.00360056
0.0035953
0.00360209
0.0035933
0.00360391
0.0035888
0.00360604
0.00357773
0.00359952
0.0035677
0.00356848
0.00360022
0.00357883
0.00360689
0.00358984
0.00360486
0.00359432
0.00360312
0.00359637
0.00360161
0.00359747
0.00360084
0.00359841
0.00360003
0.00359925
0.00359925
0.00360003
0.00359841
0.00360084
0.00359747
0.00360161
0.00359637
0.00360312
0.00359432
0.00360486
0.00358984
0.00360689
0.00357883
0.00360022
0.00356848
0.00356654
0.0035991
0.00357715
0.00360566
0.00358833
0.00360353
0.00359284
0.00360167
0.00359487
0.00360008
0.00359593
0.00359926
0.00359685
0.00359846
0.00359768
0.00359768
0.00359846
0.00359685
0.00359926
0.00359593
0.00360008
0.00359487
0.00360167
0.00359284
0.00360353
0.00358833
0.00360566
0.00357715
0.0035991
0.00356654
0.00356802
0.00360032
0.00357907
0.0036071
0.00359011
0.00360514
0.00359456
0.00360339
0.00359665
0.00360186
0.00359775
0.0036011
0.00359869
0.0036003
0.00359953
0.00359953
0.0036003
0.00359869
0.0036011
0.00359775
0.00360186
0.00359665
0.00360339
0.00359456
0.00360514
0.00359011
0.0036071
0.00357907
0.00360032
0.00356802
0.0035648
0.00359848
0.00357625
0.00360515
0.00358768
0.00360302
0.00359223
0.0036011
0.00359427
0.00359946
0.00359533
0.00359865
0.00359626
0.00359785
0.00359707
0.00359707
0.00359785
0.00359626
0.00359865
0.00359533
0.00359946
0.00359427
0.0036011
0.00359223
0.00360302
0.00358768
0.00360515
0.00357625
0.00359848
0.0035648
0.00356751
0.00360057
0.00357951
0.00360744
0.00359056
0.00360552
0.00359491
0.00360375
0.00359703
0.00360223
0.00359812
0.00360145
0.00359907
0.00360069
0.00359991
0.00359991
0.00360069
0.00359907
0.00360145
0.00359812
0.00360223
0.00359703
0.00360375
0.00359491
0.00360552
0.00359056
0.00360744
0.00357951
0.00360057
0.00356751
0.00356225
0.00359754
0.00357495
0.00360441
0.00358681
0.00360231
0.00359139
0.00360031
0.00359346
0.00359863
0.00359453
0.0035978
0.00359544
0.00359703
0.00359627
0.00359627
0.00359703
0.00359544
0.0035978
0.00359453
0.00359863
0.00359346
0.00360031
0.00359139
0.00360231
0.00358681
0.00360441
0.00357495
0.00359754
0.00356225
0.00356717
0.00360124
0.00358033
0.00360803
0.0035912
0.00360606
0.00359559
0.00360428
0.00359766
0.00360277
0.00359876
0.003602
0.00359968
0.00360124
0.00360049
0.00360049
0.00360124
0.00359968
0.003602
0.00359876
0.00360277
0.00359766
0.00360428
0.00359559
0.00360606
0.0035912
0.00360803
0.00358033
0.00360124
0.00356717
0.00355878
0.00359658
0.0035737
0.00360323
0.00358576
0.00360114
0.00359014
0.00359908
0.00359224
0.00359741
0.00359335
0.00359658
0.00359426
0.00359582
0.00359508
0.00359508
0.00359582
0.00359426
0.00359658
0.00359335
0.00359741
0.00359224
0.00359908
0.00359014
0.00360114
0.00358576
0.00360323
0.0035737
0.00359658
0.00355878
0.00356786
0.00360253
0.00358171
0.00360945
0.00359261
0.00360713
0.00359693
0.00360539
0.00359902
0.00360399
0.00360014
0.00360324
0.00360103
0.00360252
0.0036018
0.0036018
0.00360252
0.00360103
0.00360324
0.00360014
0.00360399
0.00359902
0.00360539
0.00359693
0.00360713
0.00359261
0.00360945
0.00358171
0.00360253
0.00356786
0.00355528
0.00359513
0.00357239
0.00360124
0.00358463
0.00359889
0.00358855
0.00359689
0.00359026
0.00359536
0.00359134
0.00359451
0.00359226
0.00359379
0.00359306
0.00359306
0.00359379
0.00359226
0.00359451
0.00359134
0.00359536
0.00359026
0.00359689
0.00358855
0.00359889
0.00358463
0.00360124
0.00357239
0.00359513
0.00355528
0.00357077
0.00360605
0.00358471
0.00361074
0.0035944
0.00360845
0.0035987
0.00360684
0.00360067
0.00360552
0.00360185
0.00360476
0.00360267
0.00360407
0.00360339
0.00360339
0.00360407
0.00360267
0.00360476
0.00360185
0.00360552
0.00360067
0.00360684
0.0035987
0.00360845
0.0035944
0.00361074
0.00358471
0.00360605
0.00357077
0.00355263
0.00359323
0.00357093
0.00359812
0.00358066
0.0035952
0.0035845
0.00359273
0.0035857
0.00359111
0.00358664
0.00359015
0.00358774
0.00358938
0.00358862
0.00358862
0.00358938
0.00358774
0.00359015
0.00358664
0.00359111
0.0035857
0.00359273
0.0035845
0.0035952
0.00358066
0.00359812
0.00357093
0.00359323
0.00355263
0.00357975
0.0036115
0.00358758
0.00361318
0.00359749
0.00361042
0.0036006
0.00360868
0.00360264
0.00360728
0.00360362
0.00360643
0.00360452
0.0036058
0.00360519
0.00360519
0.0036058
0.00360452
0.00360643
0.00360362
0.00360728
0.00360264
0.00360868
0.0036006
0.00361042
0.00359749
0.00361318
0.00358758
0.0036115
0.00357975
0.00355161
0.00358872
0.00356556
0.00358828
0.00357098
0.00358484
0.00357274
0.00358202
0.0035738
0.00358048
0.00357521
0.00357943
0.00357667
0.0035786
0.00357775
0.00357775
0.0035786
0.00357667
0.00357943
0.00357521
0.00358048
0.0035738
0.00358202
0.00357274
0.00358484
0.00357098
0.00358828
0.00356556
0.00358872
0.00355161
0.00358947
0.00361786
0.00358751
0.00361116
0.00359209
0.00360521
0.00359399
0.00360154
0.00359547
0.0036001
0.00359651
0.00359927
0.00359753
0.00359874
0.00359822
0.00359822
0.00359874
0.00359753
0.00359927
0.00359651
0.0036001
0.00359547
0.00360154
0.00359399
0.00360521
0.00359209
0.00361116
0.00358751
0.00361786
0.00358947
0.00356893
0.00359018
0.0035516
0.00358044
0.0035531
0.0035717
0.00355617
0.00356886
0.00355984
0.00356801
0.00356324
0.00356789
0.00356556
0.00356762
0.00356694
0.00356694
0.00356762
0.00356556
0.00356789
0.00356324
0.00356801
0.00355984
0.00356886
0.00355617
0.0035717
0.0035531
0.00358044
0.0035516
0.00359018
0.00356893
0.00359173
0.00359428
0.00358621
0.00358332
0.00357911
0.00357572
0.0035752
0.0035726
0.00357376
0.00357229
0.00357354
0.00357299
0.00357377
0.00357364
0.00357389
0.00357389
0.00357364
0.00357377
0.00357299
0.00357354
0.00357229
0.00357376
0.0035726
0.0035752
0.00357572
0.00357911
0.00358332
0.00358621
0.00359428
0.00359173
0.00359421
0.00359547
0.00359615
0.00359419
0.00359426
0.0035928
0.00359268
0.0035917
0.00359176
0.00359126
0.00359135
0.00359119
0.00359125
0.00359123
0.00359124
0.00359124
0.00359123
0.00359125
0.00359119
0.00359135
0.00359126
0.00359176
0.0035917
0.00359268
0.0035928
0.00359426
0.00359419
0.00359615
0.00359547
0.00359421
0.00358621
0.00359633
0.00359666
0.00359668
0.00359709
0.00359585
0.00359638
0.00359506
0.00359565
0.00359484
0.00359527
0.00359495
0.00359517
0.00359509
0.00359515
0.00359515
0.00359509
0.00359517
0.00359495
0.00359527
0.00359484
0.00359565
0.00359506
0.00359638
0.00359585
0.00359709
0.00359668
0.00359666
0.00359633
0.00358621
0.00358324
0.00359427
0.0035965
0.00359698
0.00359806
0.00359746
0.0035982
0.00359763
0.00359794
0.00359761
0.00359768
0.0035976
0.00359759
0.0035976
0.00359758
0.00359758
0.0035976
0.00359759
0.0035976
0.00359768
0.00359761
0.00359794
0.00359763
0.0035982
0.00359746
0.00359806
0.00359698
0.0035965
0.00359427
0.00358324
0.00357914
0.00359455
0.00359703
0.00359825
0.00359932
0.00359886
0.00359969
0.00359894
0.00359948
0.00359906
0.00359929
0.00359917
0.00359924
0.00359922
0.00359924
0.00359924
0.00359922
0.00359924
0.00359917
0.00359929
0.00359906
0.00359948
0.00359894
0.00359969
0.00359886
0.00359932
0.00359825
0.00359703
0.00359455
0.00357914
0.0035757
0.00359301
0.00359567
0.0035975
0.00359869
0.00359868
0.00359928
0.00359893
0.00359929
0.00359909
0.00359915
0.00359911
0.0035991
0.00359912
0.00359911
0.00359911
0.00359912
0.0035991
0.00359911
0.00359915
0.00359909
0.00359929
0.00359893
0.00359928
0.00359868
0.00359869
0.0035975
0.00359567
0.00359301
0.0035757
0.00357531
0.00359306
0.00359632
0.0035984
0.00359965
0.00359944
0.0036001
0.00359967
0.00360007
0.00359983
0.00359996
0.0035999
0.00359994
0.00359994
0.00359995
0.00359995
0.00359994
0.00359994
0.0035999
0.00359996
0.00359983
0.00360007
0.00359967
0.0036001
0.00359944
0.00359965
0.0035984
0.00359632
0.00359306
0.00357531
0.00357269
0.003592
0.00359491
0.00359774
0.00359875
0.00359902
0.0035995
0.00359932
0.00359957
0.00359942
0.00359946
0.00359943
0.00359943
0.00359944
0.00359943
0.00359943
0.00359944
0.00359943
0.00359943
0.00359946
0.00359942
0.00359957
0.00359932
0.0035995
0.00359902
0.00359875
0.00359774
0.00359491
0.003592
0.00357269
0.00357401
0.00359216
0.00359559
0.00359809
0.0035994
0.00359941
0.00359999
0.00359969
0.00360001
0.00359984
0.00359994
0.00359989
0.00359992
0.00359992
0.00359993
0.00359993
0.00359992
0.00359992
0.00359989
0.00359994
0.00359984
0.00360001
0.00359969
0.00359999
0.00359941
0.0035994
0.00359809
0.00359559
0.00359216
0.00357401
0.00357262
0.00359164
0.00359477
0.00359774
0.00359896
0.00359915
0.00359971
0.00359947
0.00359974
0.00359957
0.00359964
0.00359958
0.0035996
0.0035996
0.0035996
0.0035996
0.0035996
0.0035996
0.00359958
0.00359964
0.00359957
0.00359974
0.00359947
0.00359971
0.00359915
0.00359896
0.00359774
0.00359477
0.00359164
0.00357262
0.00357407
0.00359177
0.00359522
0.00359782
0.00359919
0.00359923
0.00359985
0.00359955
0.00359988
0.00359968
0.00359979
0.00359973
0.00359976
0.00359975
0.00359976
0.00359976
0.00359975
0.00359976
0.00359973
0.00359979
0.00359968
0.00359988
0.00359955
0.00359985
0.00359923
0.00359919
0.00359782
0.00359522
0.00359177
0.00357407
0.00357371
0.00359165
0.00359498
0.00359775
0.00359909
0.0035992
0.00359981
0.00359951
0.00359985
0.00359963
0.00359975
0.00359967
0.0035997
0.00359968
0.00359969
0.00359969
0.00359968
0.0035997
0.00359967
0.00359975
0.00359963
0.00359985
0.00359951
0.00359981
0.0035992
0.00359909
0.00359775
0.00359498
0.00359165
0.00357371
0.00357478
0.00359172
0.00359521
0.00359769
0.00359913
0.00359914
0.0035998
0.00359945
0.00359982
0.00359958
0.00359972
0.00359962
0.00359966
0.00359966
0.00359967
0.00359967
0.00359966
0.00359966
0.00359962
0.00359972
0.00359958
0.00359982
0.00359945
0.0035998
0.00359914
0.00359913
0.00359769
0.00359521
0.00359172
0.00357478
0.00357494
0.0035918
0.00359525
0.00359777
0.0035992
0.00359923
0.0035999
0.00359954
0.00359992
0.00359966
0.00359981
0.0035997
0.00359975
0.00359974
0.00359974
0.00359974
0.00359974
0.00359975
0.0035997
0.00359981
0.00359966
0.00359992
0.00359954
0.0035999
0.00359923
0.0035992
0.00359777
0.00359525
0.0035918
0.00357494
0.00357564
0.00359182
0.00359536
0.00359768
0.00359916
0.00359912
0.00359982
0.00359942
0.00359983
0.00359957
0.00359971
0.00359961
0.00359966
0.00359965
0.00359965
0.00359965
0.00359965
0.00359966
0.00359961
0.00359971
0.00359957
0.00359983
0.00359942
0.00359982
0.00359912
0.00359916
0.00359768
0.00359536
0.00359182
0.00357564
0.00357595
0.00359196
0.0035955
0.00359777
0.00359929
0.00359924
0.00359996
0.00359954
0.00359997
0.00359969
0.00359985
0.00359974
0.00359979
0.00359978
0.00359978
0.00359978
0.00359978
0.00359979
0.00359974
0.00359985
0.00359969
0.00359997
0.00359954
0.00359995
0.00359924
0.00359929
0.00359777
0.0035955
0.00359196
0.00357595
0.00357639
0.00359196
0.00359554
0.00359768
0.00359924
0.00359913
0.00359987
0.00359943
0.00359987
0.00359957
0.00359973
0.00359961
0.00359968
0.00359965
0.00359966
0.00359966
0.00359965
0.00359968
0.00359961
0.00359973
0.00359957
0.00359987
0.00359943
0.00359987
0.00359913
0.00359924
0.00359768
0.00359554
0.00359196
0.00357639
0.00357671
0.00359208
0.00359567
0.00359777
0.00359937
0.00359923
0.00359999
0.00359954
0.00359999
0.00359968
0.00359987
0.00359976
0.00359981
0.00359978
0.00359979
0.00359979
0.00359978
0.00359981
0.00359976
0.00359987
0.00359968
0.00359999
0.00359954
0.00359999
0.00359923
0.00359937
0.00359777
0.00359567
0.00359208
0.00357671
0.003577
0.00359208
0.00359568
0.00359771
0.00359932
0.00359914
0.00359992
0.00359945
0.00359991
0.00359959
0.00359979
0.00359966
0.00359971
0.00359968
0.00359969
0.00359969
0.00359968
0.00359971
0.00359966
0.00359979
0.00359959
0.00359991
0.00359945
0.00359992
0.00359914
0.00359932
0.0035977
0.00359568
0.00359208
0.003577
0.00357726
0.00359217
0.00359579
0.00359777
0.00359941
0.00359921
0.00360001
0.00359953
0.0036
0.00359968
0.00359989
0.00359975
0.0035998
0.00359978
0.00359979
0.00359979
0.00359978
0.0035998
0.00359975
0.00359989
0.00359968
0.0036
0.00359953
0.00360001
0.00359921
0.00359941
0.00359777
0.00359579
0.00359217
0.00357726
0.00357746
0.00359217
0.0035958
0.00359772
0.00359938
0.00359916
0.00359996
0.00359947
0.00359994
0.00359961
0.00359982
0.00359968
0.00359973
0.00359971
0.00359972
0.00359972
0.00359971
0.00359973
0.00359968
0.00359982
0.00359961
0.00359994
0.00359947
0.00359996
0.00359916
0.00359938
0.00359772
0.0035958
0.00359217
0.00357746
0.00357766
0.00359223
0.00359587
0.00359777
0.00359944
0.0035992
0.00360001
0.00359952
0.0036
0.00359967
0.00359988
0.00359974
0.0035998
0.00359978
0.00359979
0.00359979
0.00359978
0.0035998
0.00359974
0.00359988
0.00359967
0.0036
0.00359952
0.00360001
0.0035992
0.00359944
0.00359777
0.00359587
0.00359223
0.00357766
0.0035778
0.00359224
0.00359588
0.00359774
0.00359942
0.00359917
0.00359999
0.00359948
0.00359997
0.00359963
0.00359985
0.0035997
0.00359976
0.00359974
0.00359974
0.00359974
0.00359974
0.00359976
0.0035997
0.00359985
0.00359963
0.00359997
0.00359948
0.00359999
0.00359917
0.00359942
0.00359774
0.00359588
0.00359224
0.0035778
0.00357794
0.00359228
0.00359593
0.00359776
0.00359946
0.00359919
0.00360002
0.00359951
0.0036
0.00359967
0.00359988
0.00359974
0.00359979
0.00359977
0.00359978
0.00359978
0.00359977
0.00359979
0.00359974
0.00359988
0.00359967
0.0036
0.00359951
0.00360002
0.00359919
0.00359946
0.00359776
0.00359593
0.00359228
0.00357794
0.00357804
0.00359229
0.00359594
0.00359775
0.00359945
0.00359918
0.0036
0.00359949
0.00359999
0.00359965
0.00359986
0.00359972
0.00359977
0.00359975
0.00359976
0.00359976
0.00359975
0.00359977
0.00359972
0.00359986
0.00359965
0.00359999
0.00359949
0.0036
0.00359918
0.00359945
0.00359775
0.00359594
0.00359229
0.00357804
0.00357813
0.00359231
0.00359597
0.00359776
0.00359947
0.00359919
0.00360002
0.00359951
0.0036
0.00359966
0.00359988
0.00359974
0.00359979
0.00359977
0.00359978
0.00359978
0.00359977
0.00359979
0.00359974
0.00359988
0.00359966
0.0036
0.00359951
0.00360002
0.00359919
0.00359947
0.00359776
0.00359597
0.00359231
0.00357813
0.00357819
0.00359232
0.00359598
0.00359775
0.00359947
0.00359918
0.00360001
0.0035995
0.0036
0.00359965
0.00359987
0.00359973
0.00359978
0.00359976
0.00359977
0.00359977
0.00359976
0.00359978
0.00359973
0.00359987
0.00359965
0.0036
0.0035995
0.00360001
0.00359918
0.00359947
0.00359775
0.00359598
0.00359232
0.00357819
0.00357824
0.00359233
0.003596
0.00359776
0.00359948
0.00359918
0.00360002
0.0035995
0.0036
0.00359966
0.00359988
0.00359974
0.00359979
0.00359977
0.00359978
0.00359978
0.00359977
0.00359979
0.00359974
0.00359988
0.00359966
0.0036
0.0035995
0.00360002
0.00359918
0.00359948
0.00359776
0.003596
0.00359233
0.00357824
0.00357827
0.00359233
0.003596
0.00359776
0.00359948
0.00359918
0.00360002
0.0035995
0.0036
0.00359966
0.00359988
0.00359973
0.00359979
0.00359977
0.00359977
0.00359977
0.00359977
0.00359979
0.00359973
0.00359988
0.00359966
0.0036
0.0035995
0.00360002
0.00359918
0.00359948
0.00359776
0.003596
0.00359233
0.00357827
0.00357829
0.00359234
0.00359601
0.00359776
0.00359948
0.00359918
0.00360002
0.0035995
0.0036
0.00359966
0.00359988
0.00359973
0.00359979
0.00359977
0.00359978