/*--------------------------------*- C++ -*----------------------------------*\
| =========                 |                                                 |
| \\      /  F ield         | foam-extend: Open Source CFD                    |
|  \\    /   O peration     | Version:     3.2                                |
|   \\  /    A nd           | Web:         http://www.foam-extend.org         |
|    \\/     M anipulation  | For copyright notice see file Copyright         |
\*---------------------------------------------------------------------------*/
FoamFile
{
    version     2.0;
    format      ascii;
    class       volScalarField;
    location    "1";
    object      T;
}
// * * * * * * * * * * * * * * * * * * * * * * * * * * * * * * * * * * * * * //

dimensions      [0 0 0 0 1 0 0];

internalField   nonuniform List<scalar> 
2900
(
0.0003979754815
0.001193926444
0.001989831622
0.002785507872
0.003580543359
0.004374207373
0.005165363397
0.005952389049
0.006733108349
0.007504743568
0.008263895157
0.009006558282
0.009728182389
0.01042377526
0.01108804502
0.01171556354
0.01230092533
0.01283887205
0.01332435912
0.01375256067
0.0141188408
0.01441875148
0.01464813238
0.01480335977
0.01488170878
0.01488170878
0.01480335976
0.01464813237
0.01441875145
0.01411884077
0.01375256062
0.01332435907
0.012838872
0.01230092527
0.01171556348
0.01108804496
0.01042377519
0.009728182325
0.009006558218
0.008263895094
0.007504743507
0.006733108292
0.005952388997
0.00516536335
0.004374207331
0.003580543324
0.002785507844
0.001989831602
0.001193926432
0.0003979754774
0.001193926444
0.003581825119
0.005969723793
0.00835716438
0.01074300155
0.01312513011
0.01550022056
0.0178634735
0.02020840913
0.02252671433
0.02480817393
0.02704071386
0.0292105784
0.03130264888
0.03330088629
0.03518884734
0.03695019104
0.03856907582
0.04003036286
0.0413196034
0.04242289188
0.04332678419
0.04401855068
0.04448695769
0.04472347537
0.04472347535
0.04448695765
0.04401855062
0.04332678411
0.04242289178
0.04131960328
0.04003036272
0.03856907567
0.03695019087
0.03518884716
0.03330088611
0.03130264869
0.02921057821
0.02704071367
0.02480817374
0.02252671415
0.02020840896
0.01786347334
0.01550022042
0.01312512998
0.01074300144
0.008357164297
0.005969723733
0.003581825082
0.001193926432
0.001989831622
0.005969723793
0.00995007405
0.01393042431
0.01790916835
0.02188309094
0.02584691525
0.02979287526
0.03371034033
0.0375855307
0.04140137237
0.04513754483
0.04877076847
0.05227535557
0.05562400393
0.05878874848
0.06174191567
0.06445687733
0.0669084131
0.0690725982
0.07092633912
0.07244694273
0.07361232843
0.07440244494
0.07480175964
0.07480175962
0.07440244488
0.07361232834
0.07244694259
0.07092633895
0.069072598
0.06690841287
0.06445687707
0.0617419154
0.05878874819
0.05562400362
0.05227535525
0.04877076816
0.04513754452
0.04140137206
0.0375855304
0.03371034004
0.02979287499
0.02584691502
0.02188309073
0.01790916817
0.01393042417
0.00995007395
0.005969723732
0.001989831602
0.002785507872
0.00835716438
0.01393042431
0.01950529045
0.02508015659
0.03065115005
0.03621147425
0.04175077194
0.04725454622
0.05270369574
0.05807424002
0.06333732462
0.06845959509
0.07340400098
0.07813102537
0.08260022698
0.08677184583
0.09060810471
0.094073814
0.09713603718
0.09976292367
0.1019223192
0.1035813754
0.104708734
0.1052793586
0.1052793586
0.1047087339
0.1035813753
0.101922319
0.09976292344
0.0971360369
0.09407381368
0.09060810436
0.08677184545
0.08260022657
0.07813102494
0.07340400054
0.06845959464
0.06333732418
0.05807423959
0.05270369533
0.04725454583
0.04175077157
0.03621147392
0.03065114976
0.02508015634
0.01950529025
0.01393042417
0.008357164296
0.002785507844
0.003580543359
0.01074300155
0.01790916835
0.02508015659
0.0322550175
0.03942987841
0.04659705974
0.05374419202
0.06085337687
0.06790046603
0.07485456735
0.08167791853
0.08832628626
0.09475002788
0.1008958696
0.1067092882
0.112137136
0.1171298817
0.121642701
0.1256348128
0.1290669992
0.1318980348
0.13408212
0.135571757
0.1363275823
0.1363275822
0.1355717569
0.1340821198
0.1318980346
0.1290669989
0.1256348125
0.1216427006
0.1171298812
0.1121371355
0.1067092877
0.100895869
0.09475002732
0.0883262857
0.08167791797
0.0748545668
0.0679004655
0.06085337637
0.05374419156
0.04659705932
0.03942987804
0.03225501719
0.02508015634
0.01790916817
0.01074300144
0.003580543323
0.004374207373
0.01312513011
0.02188309094
0.03065115005
0.03942987841
0.04821628635
0.05700269428
0.06577555954
0.07451430318
0.08319022415
0.0917656448
0.1001934959
0.1084176036
0.1163739547
0.1239931369
0.1312039204
0.1379375281
0.144131585
0.1497322955
0.1546935138
0.1589722257
0.1625207008
0.1652773128
0.1671685916
0.1681316312
0.1681316312
0.1671685915
0.1652773126
0.1625207005
0.1589722253
0.1546935134
0.149732295
0.1441315845
0.1379375275
0.1312039197
0.1239931362
0.116373954
0.1084176029
0.1001934952
0.09176564414
0.08319022351
0.07451430258
0.06577555898
0.05700269377
0.0482162859
0.03942987804
0.03065114975
0.02188309072
0.01312512998
0.004374207329
0.005165363398
0.01550022057
0.02584691525
0.03621147425
0.04659705974
0.05700269428
0.06742187147
0.07784104866
0.08823805217
0.09858048256
0.1088242918
0.1189128166
0.1287766774
0.1383350504
0.1474988028
0.1561757283
0.1642774709
0.1717266348
0.1784613822
0.1844347213
0.1896076888
0.19393523
0.1973378388
0.1996936655
0.2008987198
0.2008987198
0.1996936654
0.1973378385
0.1939352296
0.1896076883
0.1844347208
0.1784613816
0.1717266342
0.1642774702
0.1561757276
0.147498802
0.1383350496
0.1287766766
0.1189128158
0.108824291
0.09858048182
0.08823805146
0.07784104801
0.06742187088
0.05700269376
0.04659705931
0.0362114739
0.025846915
0.01550022041
0.005165363347
0.00595238905
0.0178634735
0.02979287526
0.04175077194
0.05374419203
0.06577555954
0.07784104867
0.08992871146
0.1020163742
0.1140693621
0.1260382233
0.1378568013
0.1494412391
0.1606907666
0.1714912957
0.181722719
0.1912699925
0.2000361012
0.207951877
0.2149763005
0.2210885781
0.2262746915
0.2304451467
0.2333695119
0.2348708628
0.2348708627
0.2333695118
0.2304451464
0.2262746911
0.2210885776
0.2149762999
0.2079518764
0.2000361005
0.1912699918
0.1817227182
0.1714912948
0.1606907657
0.1494412382
0.1378568004
0.1260382224
0.1140693613
0.1020163734
0.08992871072
0.077841048
0.06577555896
0.05374419153
0.04175077155
0.02979287497
0.01786347333
0.005952388992
0.00673310835
0.02020840913
0.03371034033
0.04725454623
0.06085337687
0.07451430319
0.08823805217
0.1020163743
0.1158293713
0.1296423682
0.1434024381
0.1570349261
0.170440711
0.1834954812
0.1960528942
0.2079538597
0.219043679
0.2291959003
0.2383337243
0.2464300255
0.2534956317
0.2596298111
0.2647985447
0.2684683727
0.2703443566
0.2703443565
0.2684683725
0.2647985443
0.2596298107
0.2534956312
0.2464300249
0.2383337236
0.2291958995
0.2190436781
0.2079538588
0.1960528932
0.1834954802
0.17044071
0.1570349251
0.1434024371
0.1296423673
0.1158293704
0.1020163734
0.08823805143
0.07451430254
0.06085337632
0.04725454579
0.03371034001
0.02020840894
0.006733108285
0.007504743569
0.02252671433
0.0375855307
0.05270369575
0.06790046604
0.08319022416
0.09858048257
0.1140693621
0.1296423682
0.1452683015
0.1608942348
0.1764397538
0.1917911979
0.2067975528
0.2212709403
0.2349961465
0.2477549634
0.2593700966
0.2697570944
0.2789144454
0.2868341121
0.2939503765
0.3006508481
0.3053610775
0.3076938344
0.3076938343
0.3053610773
0.3006508478
0.293950376
0.2868341115
0.2789144447
0.2697570937
0.2593700957
0.2477549624
0.2349961455
0.2212709392
0.2067975517
0.1917911968
0.1764397527
0.1608942337
0.1452683005
0.1296423673
0.1140693612
0.09858048176
0.08319022344
0.06790046543
0.05270369527
0.03758553035
0.02252671412
0.007504743498
0.008263895158
0.02480817394
0.04140137238
0.05807424003
0.07485456736
0.09176564481
0.1088242918
0.1260382233
0.1434024381
0.1608942348
0.1784664456
0.1960386564
0.2134867738
0.230632592
0.2472371675
0.2630048227
0.2776099314
0.2907724282
0.3024101114
0.3126365497
0.3209759947
0.3286867347
0.3384933938
0.3446312549
0.3473760691
0.3473760691
0.3446312547
0.3384933934
0.3286867342
0.320975994
0.312636549
0.3024101106
0.2907724272
0.2776099304
0.2630048216
0.2472371663
0.2306325908
0.2134867726
0.1960386553
0.1784664445
0.1608942336
0.1434024371
0.1260382224
0.108824291
0.09176564404
0.07485456671
0.05807423952
0.041401372
0.02480817371
0.008263895081
0.009006558284
0.02704071387
0.04513754484
0.06333732463
0.08167791855
0.1001934959
0.1189128166
0.1378568013
0.1570349261
0.1764397538
0.1960386564
0.2157616526
0.2354846487
0.255008874
0.2740403148
0.2921760455
0.3089075114
0.3236995732
0.3364743734
0.3482456472
0.3557465822
0.3613271738
0.3800047374
0.3872944792
0.3898031182
0.3898031181
0.387294479
0.3800047371
0.3613271733
0.3557465815
0.3482456464
0.3364743725
0.3236995722
0.3089075103
0.2921760443
0.2740403136
0.2550088727
0.2354846475
0.2157616513
0.1960386552
0.1764397526
0.1570349249
0.1378568002
0.1189128157
0.1001934951
0.08167791785
0.06333732408
0.04513754444
0.02704071363
0.009006558202
0.009728182392
0.02921057841
0.04877076849
0.0684595951
0.08832628628
0.1084176036
0.1287766774
0.1494412391
0.1704407111
0.1917911979
0.2134867738
0.2354846487
0.2576812946
0.2798779404
0.3017391723
0.322751533
0.3421444955
0.3586439798
0.3715421619
0.3881250836
0.3924375129
0.3808706409
0.432903903
0.4347388062
0.4347388062
0.434738806
0.434738806
0.4329039025
0.3808706404
0.3924375121
0.3881250828
0.3715421609
0.3586439788
0.3421444943
0.3227515318
0.301739171
0.2798779391
0.2576812932
0.2354846474
0.2134867725
0.1917911966
0.1704407099
0.149441238
0.1287766764
0.1084176027
0.08832628555
0.06845959452
0.04877076806
0.02921057815
0.009728182305
0.01042377526
0.03130264889
0.05227535558
0.073404001
0.0947500279
0.1163739547
0.1383350504
0.1606907666
0.1834954812
0.2067975529
0.230632592
0.255008874
0.2798779404
0.3050824206
0.3302869009
0.3549464186
0.3782749577
0.3971896888
0.4029252105
0.4402750124
0.4402750124
0.432903903
0.4867787084
0.4866205378
0.4866205378
0.4866205376
0.4866205376
0.486778708
0.4329039025
0.4402750117
0.4402750117
0.4029252095
0.3971896877
0.3782749565
0.3549464174
0.3302868996
0.3050824193
0.279877939
0.2550088726
0.2306325907
0.2067975515
0.1834954799
0.1606907654
0.1383350493
0.1163739538
0.09475002713
0.07340400038
0.05227535514
0.03130264862
0.01042377517
0.01108804502
0.0333008863
0.05562400395
0.07813102539
0.1008958696
0.1239931369
0.1474988028
0.1714912957
0.1960528942
0.2212709403
0.2472371675
0.2740403148
0.3017391723
0.3302869009
0.359379592
0.388472283
0.4188192277
0.4489146069
0.4489146069
0.4981748302
0.4917514723
0.4917514723
0
0
0
0
0
0
0.4917514716
0.4917514716
0.4981748294
0.448914606
0.448914606
0.4188192266
0.3884722817
0.3593795906
0.3302868995
0.3017391708
0.2740403134
0.2472371661
0.2212709389
0.1960528929
0.1714912945
0.1474988017
0.1239931359
0.1008958688
0.07813102476
0.05562400348
0.03330088602
0.01108804493
0.01171556354
0.03518884735
0.0587887485
0.08260022701
0.1067092883
0.1312039204
0.1561757283
0.1817227191
0.2079538597
0.2349961466
0.2630048228
0.2921760455
0.322751533
0.3549464187
0.388472283
0.4207438937
0.4596150633
0.4596150633
0.4981748302
0.4981748302
0
0
0
0
0
0
0
0
0
0
0.4981748294
0.4981748294
0.4596150622
0.4596150622
0.4207438923
0.3884722816
0.3549464172
0.3227515315
0.292176044
0.2630048213
0.2349961452
0.2079538584
0.1817227179
0.1561757272
0.1312039194
0.1067092874
0.08260022635
0.05878874802
0.03518884706
0.01171556344
0.01230092533
0.03695019106
0.0617419157
0.08677184587
0.112137136
0.1379375281
0.164277471
0.1912699926
0.219043679
0.2477549634
0.2776099315
0.3089075115
0.3421444955
0.3782749577
0.4188192278
0.4596150633
0.4596150633
0.5046158049
0
0
0
0
0
0
0
0
0
0
0
0
0
0
0.5046158039
0.4596150621
0.4596150621
0.4188192264
0.3782749562
0.342144494
0.3089075099
0.27760993
0.247754962
0.2190436777
0.1912699913
0.1642774698
0.1379375271
0.1121371351
0.08677184519
0.06174191521
0.03695019076
0.01230092523
0.01283887206
0.03856907584
0.06445687736
0.09060810475
0.1171298817
0.1441315851
0.1717266349
0.2000361012
0.2291959003
0.2593700966
0.2907724282
0.3236995733
0.3586439799
0.3971896888
0.4489146069
0.4596150633
0.5046158049
0
0
0
0
0
0
0
0
0
0
0
0
0
0
0
0
0.5046158038
0.4596150621
0.4489146056
0.3971896873
0.3586439784
0.3236995718
0.2907724267
0.2593700952
0.2291958989
0.2000361
0.1717266337
0.1441315841
0.1171298809
0.09060810406
0.06445687685
0.03856907553
0.01283887196
0.01332435912
0.04003036288
0.06690841313
0.09407381405
0.1216427011
0.1497322956
0.1784613823
0.2079518771
0.2383337244
0.2697570945
0.3024101115
0.3364743735
0.3715421619
0.4029252106
0.4489146069
0.4981748303
0
0
0
0
0
0
0
0
0
0
0
0
0
0
0
0
0
0
0.498174829
0.4489146056
0.4029252091
0.3715421604
0.336474372
0.30241011
0.2697570931
0.238333723
0.2079518758
0.1784613811
0.1497322945
0.1216427002
0.09407381334
0.06690841262
0.04003036257
0.01332435902
0.01375256067
0.04131960343
0.06907259824
0.09713603723
0.1256348129
0.1546935139
0.1844347214
0.2149763006
0.2464300256
0.2789144455
0.3126365498
0.3482456473
0.3881250837
0.4402750125
0.4981748303
0.4981748303
0
0
0
0
0
0
0
0
0
0
0
0
0
0
0
0
0
0
0.498174829
0.498174829
0.440275011
0.3881250822
0.3482456458
0.3126365483
0.278914444
0.2464300242
0.2149762993
0.1844347202
0.1546935129
0.125634812
0.09713603652
0.06907259772
0.04131960311
0.01375256057
0.01411884081
0.04242289191
0.07092633917
0.09976292373
0.1290669993
0.1589722258
0.1896076889
0.2210885782
0.2534956318
0.2868341122
0.3209759948
0.3557465823
0.392437513
0.4402750125
0.4917514723
0
0
0
0
0
0
0
0
0
0
0
0
0
0
0
0
0
0
0
0
0.491751471
0.440275011
0.3924375115
0.3557465807
0.3209759932
0.2868341107
0.2534956304
0.2210885769
0.1896076877
0.1589722247
0.1290669984
0.09976292302
0.07092633864
0.04242289159
0.01411884071
0.01441875149
0.04332678422
0.07244694277
0.1019223192
0.1318980349
0.1625207009
0.1939352301
0.2262746916
0.2596298112
0.2939503766
0.3286867348
0.3613271739
0.380870641
0.4329039031
0.4917514723
0
0
0
0
0
0
0
0
0
0
0
0
0
0
0
0
0
0
0
0
0.491751471
0.4329039017
0.3808706395
0.3613271724
0.3286867333
0.2939503751
0.2596298098
0.2262746903
0.1939352289
0.1625206998
0.131898034
0.1019223185
0.07244694225
0.0433267839
0.01441875138
0.0146481324
0.04401855071
0.07361232849
0.1035813755
0.1340821201
0.1652773129
0.1973378389
0.2304451468
0.2647985448
0.3006508483
0.338493394
0.3800047376
0.4329039031
0.4867787085
0
0
0
0
0
0
0
0
0
0
0
0
0
0
0
0
0
0
0
0
0
0
0.4867787072
0.4329039017
0.3800047361
0.3384933924
0.3006508468
0.2647985434
0.2304451455
0.1973378377
0.1652773119
0.1340821192
0.1035813747
0.07361232796
0.04401855039
0.01464813229
0.01480335978
0.04448695772
0.074402445
0.1047087341
0.1355717571
0.1671685918
0.1996936657
0.2333695121
0.2684683728
0.3053610777
0.3446312551
0.3872944794
0.4347388064
0.4866205379
0
0
0
0
0
0
0
0
0
0
0
0
0
0
0
0
0
0
0
0
0
0
0.4866205366
0.434738805
0.3872944779
0.3446312536
0.3053610762
0.2684683714
0.2333695108
0.1996936645
0.1671685907
0.1355717562
0.1047087333
0.07440244447
0.04448695741
0.01480335968
0.0148817088
0.04472347541
0.0748017597
0.1052793587
0.1363275824
0.1681316314
0.20089872
0.2348708629
0.2703443568
0.3076938346
0.3473760693
0.3898031183
0.4347388064
0.4866205379
0
0
0
0
0
0
0
0
0
0
0
0
0
0
0
0
0
0
0
0
0
0
0.4866205366
0.434738805
0.3898031169
0.3473760679
0.3076938331
0.2703443554
0.2348708616
0.2008987188
0.1681316303
0.1363275815
0.105279358
0.07480175918
0.04472347509
0.01488170869
0.01488170879
0.0447234754
0.07480175969
0.1052793587
0.1363275824
0.1681316313
0.20089872
0.2348708629
0.2703443567
0.3076938345
0.3473760693
0.3898031183
0.4347388062
0.4866205378
0
0
0
0
0
0
0
0
0
0
0
0
0
0
0
0
0
0
0
0
0
0
0.4866205366
0.4347388049
0.3898031168
0.3473760678
0.3076938331
0.2703443554
0.2348708616
0.2008987188
0.1681316303
0.1363275815
0.105279358
0.07480175917
0.04472347508
0.01488170869
0.01480335978
0.0444869577
0.07440244495
0.104708734
0.135571757
0.1671685917
0.1996936656
0.233369512
0.2684683727
0.3053610776
0.3446312549
0.3872944792
0.4347388062
0.4866205378
0
0
0
0
0
0
0
0
0
0
0
0
0
0
0
0
0
0
0
0
0
0
0.4866205366
0.4347388049
0.3872944778
0.3446312535
0.3053610761
0.2684683713
0.2333695107
0.1996936644
0.1671685906
0.1355717561
0.1047087333
0.07440244444
0.04448695739
0.01480335967
0.01464813238
0.04401855067
0.07361232842
0.1035813754
0.13408212
0.1652773128
0.1973378387
0.2304451466
0.2647985446
0.300650848
0.3384933937
0.3800047373
0.4329039028
0.4867787082
0
0
0
0
0
0
0
0
0
0
0
0
0
0
0
0
0
0
0
0
0
0
0.486778707
0.4329039014
0.3800047359
0.3384933923
0.3006508466
0.2647985432
0.2304451454
0.1973378375
0.1652773117
0.1340821191
0.1035813747
0.07361232791
0.04401855036
0.01464813228
0.01441875147
0.04332678416
0.07244694268
0.1019223191
0.1318980347
0.1625207007
0.1939352298
0.2262746913
0.2596298109
0.2939503763
0.3286867345
0.3613271736
0.3808706407
0.4329039028
0.4917514719
0
0
0
0
0
0
0
0
0
0
0
0
0
0
0
0
0
0
0
0
0.4917514707
0.4329039014
0.3808706393
0.3613271721
0.328686733
0.2939503749
0.2596298096
0.2262746901
0.1939352287
0.1625206997
0.1318980339
0.1019223184
0.07244694218
0.04332678386
0.01441875136
0.01411884079
0.04242289183
0.07092633904
0.09976292356
0.1290669991
0.1589722255
0.1896076886
0.2210885779
0.2534956314
0.2868341118
0.3209759943
0.3557465818
0.3924375125
0.440275012
0.4917514719
0
0
0
0
0
0
0
0
0
0
0
0
0
0
0
0
0
0
0
0
0.4917514707
0.4402750107
0.3924375111
0.3557465804
0.3209759929
0.2868341104
0.2534956301
0.2210885766
0.1896076874
0.1589722245
0.1290669983
0.09976292289
0.07092633855
0.04242289154
0.01411884069
0.01375256064
0.04131960334
0.06907259809
0.09713603703
0.1256348126
0.1546935136
0.184434721
0.2149763002
0.2464300251
0.278914445
0.3126365493
0.3482456468
0.3881250831
0.440275012
0.4981748297
0.4981748297
0
0
0
0
0
0
0
0
0
0
0
0
0
0
0
0
0
0
0.4981748285
0.4981748285
0.4402750107
0.3881250817
0.3482456454
0.3126365479
0.2789144437
0.2464300238
0.214976299
0.1844347199
0.1546935126
0.1256348118
0.09713603637
0.06907259762
0.04131960305
0.01375256055
0.01332435909
0.04003036278
0.06690841297
0.09407381382
0.1216427008
0.1497322952
0.1784613818
0.2079518767
0.2383337239
0.269757094
0.3024101109
0.3364743729
0.3715421613
0.4029252099
0.4489146063
0.4981748297
0
0
0
0
0
0
0
0
0
0
0
0
0
0
0
0
0
0
0.4981748285
0.4489146051
0.4029252086
0.3715421599
0.3364743715
0.3024101096
0.2697570926
0.2383337226
0.2079518755
0.1784613808
0.1497322943
0.1216427
0.09407381317
0.0669084125
0.0400303625
0.01332435899
0.01283887202
0.03856907573
0.06445687717
0.0906081045
0.1171298814
0.1441315847
0.1717266344
0.2000361007
0.2291958998
0.259370096
0.2907724276
0.3236995726
0.3586439792
0.3971896881
0.4489146063
0.4596150625
0.5046158042
0
0
0
0
0
0
0
0
0
0
0
0
0
0
0
0
0.5046158032
0.4596150614
0.4489146051
0.3971896868
0.3586439778
0.3236995712
0.2907724262
0.2593700947
0.2291958985
0.2000360996
0.1717266334
0.1441315838
0.1171298806
0.09060810387
0.06445687672
0.03856907545
0.01283887193
0.01230092529
0.03695019094
0.0617419155
0.08677184559
0.1121371356
0.1379375277
0.1642774705
0.191269992
0.2190436784
0.2477549628
0.2776099308
0.3089075107
0.3421444947
0.3782749569
0.418819227
0.4596150625
0.4596150624
0.5046158041
0
0
0
0
0
0
0
0
0
0
0
0
0
0
0.5046158032
0.4596150615
0.4596150614
0.4188192257
0.3782749556
0.3421444934
0.3089075094
0.2776099294
0.2477549615
0.2190436772
0.1912699909
0.1642774695
0.1379375268
0.1121371349
0.08677184498
0.06174191506
0.03695019067
0.0123009252
0.0117155635
0.03518884722
0.05878874829
0.08260022671
0.1067092879
0.13120392
0.1561757278
0.1817227185
0.2079538591
0.2349961458
0.263004822
0.2921760447
0.3227515322
0.3549464178
0.3884722822
0.4207438928
0.4596150624
0.4596150624
0.4981748293
0.4981748293
0
0
0
0
0
0
0
0
0
0
0.4981748286
0.4981748286
0.4596150615
0.4596150615
0.4207438917
0.3884722809
0.3549464165
0.3227515309
0.2921760434
0.2630048207
0.2349961446
0.2079538579
0.1817227174
0.1561757268
0.1312039191
0.1067092872
0.08260022613
0.05878874787
0.03518884697
0.01171556341
0.01108804498
0.03330088617
0.05562400372
0.07813102508
0.1008958692
0.1239931364
0.1474988023
0.1714912951
0.1960528935
0.2212709395
0.2472371667
0.274040314
0.3017391714
0.3302869
0.359379591
0.3884722821
0.4188192268
0.4489146059
0.4489146059
0.4981748293
0.4917514713
0.4917514713
0
0
0
0
0
0
0.4917514708
0.4917514708
0.4981748286
0.4489146051
0.4489146051
0.4188192258
0.388472281
0.3593795898
0.3302868988
0.3017391702
0.2740403127
0.2472371655
0.2212709384
0.1960528924
0.171491294
0.1474988013
0.1239931356
0.1008958685
0.07813102453
0.05562400332
0.03330088592
0.01108804489
0.01042377521
0.03130264875
0.05227535535
0.07340400068
0.09475002749
0.1163739542
0.1383350498
0.160690766
0.1834954805
0.2067975521
0.2306325912
0.2550088731
0.2798779394
0.3050824197
0.3302868999
0.3549464176
0.3782749566
0.3971896877
0.4029252095
0.4402750114
0.4402750114
0.4329039019
0.4867787074
0.4866205368
0.4866205368
0.4866205367
0.4866205367
0.4867787071
0.4329039016
0.4402750108
0.4402750108
0.4029252087
0.3971896868
0.3782749557
0.3549464166
0.3302868988
0.3050824185
0.2798779383
0.2550088719
0.23063259
0.206797551
0.1834954794
0.160690765
0.1383350489
0.1163739534
0.09475002683
0.07340400015
0.05227535497
0.03130264852
0.01042377514
0.009728182345
0.02921057827
0.04877076825
0.06845959478
0.08832628587
0.1084176031
0.1287766768
0.1494412384
0.1704407103
0.1917911971
0.2134867729
0.2354846478
0.2576812936
0.2798779394
0.3017391712
0.3227515319
0.3421444944
0.3586439787
0.3715421608
0.3881250825
0.3924375118
0.3808706398
0.4329039019
0.4347388052
0.4347388052
0.4347388051
0.4347388051
0.4329039016
0.3808706394
0.3924375112
0.3881250818
0.37154216
0.3586439779
0.3421444935
0.3227515309
0.3017391702
0.2798779383
0.2576812925
0.2354846467
0.2134867718
0.191791196
0.1704407093
0.1494412375
0.128776676
0.1084176023
0.08832628524
0.06845959428
0.04877076789
0.02921057805
0.00972818227
0.009006558238
0.02704071373
0.04513754461
0.06333732431
0.08167791814
0.1001934954
0.118912816
0.1378568006
0.1570349253
0.176439753
0.1960386556
0.2157616517
0.2354846478
0.255008873
0.2740403138
0.2921760444
0.3089075103
0.3236995721
0.3364743723
0.3482456461
0.355746581
0.3613271727
0.3800047364
0.3872944781
0.3898031171
0.389803117
0.3872944779
0.3800047361
0.3613271723
0.3557465805
0.3482456455
0.3364743716
0.3236995713
0.3089075094
0.2921760435
0.2740403128
0.255008872
0.2354846467
0.2157616506
0.1960386546
0.176439752
0.1570349244
0.1378567997
0.1189128152
0.1001934947
0.08167791754
0.06333732384
0.04513754427
0.02704071352
0.009006558167
0.008263895113
0.0248081738
0.04140137215
0.05807423972
0.07485456696
0.09176564433
0.1088242913
0.1260382227
0.1434024374
0.160894234
0.1784664448
0.1960386556
0.2134867728
0.230632591
0.2472371664
0.2630048217
0.2776099304
0.2907724271
0.3024101103
0.3126365486
0.3209759936
0.3286867336
0.3384933927
0.3446312539
0.3473760681
0.347376068
0.3446312537
0.3384933924
0.3286867332
0.320975993
0.312636548
0.3024101097
0.2907724263
0.2776099295
0.2630048208
0.2472371655
0.2306325901
0.2134867718
0.1960386546
0.1784664438
0.160894233
0.1434024365
0.1260382219
0.1088242905
0.09176564368
0.07485456641
0.05807423928
0.04140137183
0.02480817361
0.008263895047
0.007504743525
0.0225267142
0.03758553048
0.05270369545
0.06790046565
0.08319022369
0.09858048203
0.1140693615
0.1296423676
0.1452683008
0.1608942339
0.1764397529
0.191791197
0.2067975519
0.2212709393
0.2349961455
0.2477549623
0.2593700955
0.2697570934
0.2789144444
0.286834111
0.2939503754
0.3006508471
0.3053610765
0.3076938334
0.3076938333
0.3053610763
0.3006508468
0.2939503751
0.2868341105
0.2789144438
0.2697570927
0.2593700948
0.2477549616
0.2349961447
0.2212709384
0.206797551
0.191791196
0.176439752
0.1608942331
0.1452682999
0.1296423667
0.1140693607
0.09858048134
0.08319022309
0.06790046514
0.05270369504
0.03758553019
0.02252671403
0.007504743465
0.006733108308
0.02020840901
0.03371034012
0.04725454594
0.06085337651
0.07451430275
0.08823805166
0.1020163737
0.1158293706
0.1296423675
0.1434024373
0.1570349252
0.1704407102
0.1834954803
0.1960528933
0.2079538587
0.219043678
0.2291958993
0.2383337233
0.2464300245
0.2534956307
0.2596298101
0.2647985436
0.2684683717
0.2703443556
0.2703443556
0.2684683715
0.2647985434
0.2596298097
0.2534956302
0.2464300239
0.2383337227
0.2291958986
0.2190436773
0.207953858
0.1960528925
0.1834954794
0.1704407094
0.1570349244
0.1434024365
0.1296423667
0.1158293699
0.102016373
0.08823805104
0.0745143022
0.06085337605
0.04725454557
0.03371033986
0.02020840884
0.006733108254
0.005952389012
0.01786347339
0.02979287507
0.04175077167
0.05374419169
0.06577555913
0.07784104819
0.08992871092
0.1020163736
0.1140693614
0.1260382226
0.1378568005
0.1494412383
0.1606907657
0.1714912948
0.1817227182
0.1912699916
0.2000361002
0.2079518761
0.2149762995
0.2210885771
0.2262746905
0.2304451457
0.233369511
0.2348708618
0.2348708618
0.2333695108
0.2304451455
0.2262746902
0.2210885768
0.2149762991
0.2079518756
0.2000360996
0.191269991
0.1817227175
0.1714912941
0.160690765
0.1494412375
0.1378567998
0.1260382219
0.1140693607
0.102016373
0.0899287103
0.07784104763
0.06577555864
0.05374419128
0.04175077135
0.02979287483
0.01786347324
0.005952388963
0.005165363363
0.01550022046
0.02584691508
0.03621147401
0.04659705944
0.05700269391
0.06742187104
0.07784104817
0.08823805162
0.09858048197
0.1088242912
0.1189128159
0.1287766767
0.1383350496
0.147498802
0.1561757275
0.1642774701
0.171726634
0.1784613813
0.1844347205
0.1896076879
0.1939352291
0.1973378379
0.1996936647
0.200898719
0.2008987189
0.1996936646
0.1973378377
0.1939352288
0.1896076876
0.18443472
0.1784613809
0.1717266335
0.1642774695
0.1561757269
0.1474988014
0.138335049
0.128776676
0.1189128153
0.1088242905
0.09858048135
0.08823805104
0.07784104763
0.06742187055
0.05700269348
0.04659705908
0.03621147372
0.02584691487
0.01550022034
0.005165363321
0.004374207343
0.01312513002
0.02188309079
0.03065114984
0.03942987814
0.04821628602
0.0570026939
0.06577555911
0.07451430271
0.08319022362
0.09176564424
0.1001934953
0.1084176029
0.116373954
0.1239931362
0.1312039196
0.1379375273
0.1441315843
0.1497322948
0.1546935131
0.1589722249
0.1625207
0.165277312
0.1671685909
0.1681316305
0.1681316304
0.1671685908
0.1652773119
0.1625206998
0.1589722246
0.1546935127
0.1497322944
0.1441315838
0.1379375269
0.1312039191
0.1239931356
0.1163739534
0.1084176024
0.1001934947
0.09176564369
0.0831902231
0.07451430221
0.06577555865
0.05700269348
0.04821628566
0.03942987783
0.03065114959
0.02188309061
0.01312512991
0.004374207306
0.003580543333
0.01074300147
0.01790916822
0.02508015641
0.03225501727
0.03942987814
0.04659705942
0.05374419166
0.06085337646
0.06790046559
0.07485456687
0.08167791802
0.08832628573
0.09475002731
0.100895869
0.1067092876
0.1121371353
0.117129881
0.1216427004
0.1256348122
0.1290669986
0.1318980341
0.1340821193
0.1355717563
0.1363275816
0.1363275816
0.1355717562
0.1340821192
0.131898034
0.1290669983
0.1256348119
0.1216427
0.1171298807
0.1121371349
0.1067092872
0.1008958686
0.09475002686
0.08832628527
0.08167791756
0.07485456642
0.06790046515
0.06085337605
0.05374419128
0.04659705908
0.03942987784
0.03225501702
0.02508015621
0.01790916807
0.01074300138
0.003580543303
0.002785507852
0.008357164319
0.01393042421
0.01950529031
0.02508015641
0.03065114983
0.03621147399
0.04175077165
0.0472545459
0.05270369539
0.05807423964
0.06333732422
0.06845959466
0.07340400053
0.0781310249
0.0826002265
0.08677184534
0.09060810421
0.09407381349
0.09713603666
0.09976292315
0.1019223186
0.1035813749
0.1047087335
0.1052793581
0.1052793581
0.1047087334
0.1035813748
0.1019223185
0.09976292296
0.09713603643
0.09407381323
0.09060810392
0.08677184502
0.08260022616
0.07813102456
0.07340400017
0.0684595943
0.06333732386
0.05807423929
0.05270369505
0.04725454558
0.04175077135
0.03621147372
0.03065114959
0.02508015621
0.01950529015
0.01393042409
0.00835716425
0.002785507829
0.001989831607
0.005969723749
0.009950073977
0.0139304242
0.01790916821
0.02188309078
0.02584691507
0.02979287505
0.03371034009
0.03758553044
0.0414013721
0.04513754454
0.04877076816
0.05227535524
0.05562400359
0.05878874813
0.06174191531
0.06445687696
0.06690841273
0.06907259782
0.07092633874
0.07244694234
0.07361232805
0.07440244456
0.07480175926
0.07480175924
0.07440244451
0.07361232797
0.07244694224
0.07092633861
0.06907259766
0.06690841254
0.06445687675
0.06174191509
0.05878874789
0.05562400334
0.05227535498
0.0487707679
0.04513754428
0.04140137184
0.0375855302
0.03371033986
0.02979287483
0.02584691487
0.02188309061
0.01790916807
0.01393042409
0.009950073895
0.005969723699
0.001989831591
0.001193926436
0.003581825092
0.005969723749
0.008357164318
0.01074300147
0.01312513001
0.01550022045
0.01786347337
0.02020840899
0.02252671418
0.02480817376
0.02704071369
0.02921057821
0.03130264868
0.03330088609
0.03518884713
0.03695019082
0.0385690756
0.04003036263
0.04131960317
0.04242289165
0.04332678396
0.04401855044
0.04448695746
0.04472347514
0.04472347513
0.04448695743
0.0440185504
0.04332678389
0.04242289157
0.04131960308
0.04003036252
0.03856907547
0.03695019069
0.03518884698
0.03330088594
0.03130264853
0.02921057806
0.02704071353
0.02480817361
0.02252671403
0.02020840885
0.01786347324
0.01550022034
0.01312512991
0.01074300138
0.00835716425
0.005969723699
0.003581825062
0.001193926426
0.0003979754785
0.001193926436
0.001989831607
0.002785507852
0.003580543332
0.004374207341
0.00516536336
0.005952389007
0.006733108302
0.007504743516
0.0082638951
0.009006558222
0.009728182325
0.01042377519
0.01108804495
0.01171556347
0.01230092525
0.01283887198
0.01332435904
0.01375256059
0.01411884073
0.0144187514
0.01464813231
0.01480335969
0.01488170871
0.0148817087
0.01480335968
0.01464813229
0.01441875138
0.0141188407
0.01375256055
0.013324359
0.01283887194
0.01230092521
0.01171556342
0.0110880449
0.01042377514
0.009728182273
0.00900655817
0.008263895049
0.007504743466
0.006733108255
0.005952388964
0.005165363321
0.004374207307
0.003580543304
0.002785507829
0.001989831591
0.001193926426
0.0003979754752
0.9375076584
0.8365356167
0.7496821641