/*--------------------------------*- C++ -*----------------------------------*\
| =========                 |                                                 |
| \\      /  F ield         | foam-extend: Open Source CFD                    |
|  \\    /   O peration     | Version:     3.2                                |
|   \\  /    A nd           | Web:         http://www.foam-extend.org         |
|    \\/     M anipulation  |                                                 |
\*---------------------------------------------------------------------------*/
FoamFile
{
    version     2.0;
    format      ascii;
    class       volScalarField;
    location    "1000";
    object      nut;
}
// * * * * * * * * * * * * * * * * * * * * * * * * * * * * * * * * * * * * * //

dimensions      [0 2 -1 0 0 0 0];

internalField   nonuniform List<scalar>
100
(
1.21785e-05
1.22034e-05
1.18131e-05
1.13441e-05
1.09569e-05
1.06084e-05
1.02572e-05
9.85849e-06
9.36793e-06
8.69525e-06
1.32378e-05
2.22807e-05
2.46882e-05
2.67024e-05
2.79187e-05
2.8085e-05
2.69455e-05
2.42296e-05
1.96054e-05
9.54756e-06
1.40374e-05
3.15682e-05
3.54686e-05
4.04963e-05
4.26252e-05
4.22113e-05
3.89888e-05
3.24706e-05
2.33811e-05
9.57482e-06
1.4776e-05
3.97026e-05
4.35993e-05
4.90069e-05
5.08533e-05
4.88669e-05
4.25389e-05
3.19679e-05
2.00092e-05
9.21191e-06
1.54597e-05
4.10906e-05
4.41726e-05
4.60428e-05
4.46243e-05
3.9502e-05
3.13767e-05
2.2414e-05
1.51558e-05
8.99938e-06
1.59747e-05
4.00836e-05
3.68754e-05
3.29631e-05
2.91368e-05
2.46219e-05
2.03744e-05
1.75337e-05
1.60525e-05
1.22764e-05
1.62063e-05
3.71691e-05
3.22094e-05
2.80829e-05
2.53951e-05
2.35569e-05
2.29651e-05
2.37218e-05
2.39525e-05
1.56771e-05
1.63308e-05
3.56931e-05
3.3752e-05
3.25922e-05
3.24741e-05
3.26572e-05
3.28466e-05
3.26352e-05
2.73235e-05
1.68265e-05
1.86457e-05
3.97737e-05
4.37572e-05
4.75445e-05
5.11848e-05
5.40794e-05
5.61295e-05
4.74417e-05
2.97506e-05
1.77855e-05
1.62095e-05
1.77045e-05
1.88081e-05
1.99724e-05
2.10995e-05
2.19329e-05
2.19084e-05
2.10578e-05
1.99396e-05
1.84885e-05
)
;

boundaryField
{
    movingWall
    {
        type            nutWallFunction;
        Cmu             0.09;
        kappa           0.41;
        E               9.8;
        value           uniform 0;
    }
    left
    {
        type            nutWallFunction;
        Cmu             0.09;
        kappa           0.41;
        E               9.8;
        value           uniform 0;
    }
    right
    {
        type            nutWallFunction;
        Cmu             0.09;
        kappa           0.41;
        E               9.8;
        value           uniform 0;
    }
    bottom
    {
        type            nutWallFunction;
        Cmu             0.09;
        kappa           0.41;
        E               9.8;
        value           uniform 0;
    }
    frontAndBack
    {
        type            empty;
    }
}

// ************************************************************************* //
