/*--------------------------------*- C++ -*----------------------------------*\
| =========                 |                                                 |
| \\      /  F ield         | foam-extend: Open Source CFD                    |
|  \\    /   O peration     | Version:     3.2                                |
|   \\  /    A nd           | Web:         http://www.foam-extend.org         |
|    \\/     M anipulation  |                                                 |
\*---------------------------------------------------------------------------*/
FoamFile
{
    version     2.0;
    format      ascii;
    class       volScalarField;
    location    "0";
    object      y;
}
// * * * * * * * * * * * * * * * * * * * * * * * * * * * * * * * * * * * * * //

dimensions      [0 1 0 0 0 0 0];

internalField   nonuniform List<scalar>
12225
(
0.000156695
0.000156695
0.000156695
0.000156695
0.000156695
0.000156695
0.000156695
0.000156695
0.000156695
0.000156695
0.000156695
0.000156695
0.000156695
0.000156695
0.000156695
0.000156695
0.000156695
0.000156695
0.000486212
0.000486212
0.000486212
0.000486212
0.000486212
0.000486212
0.000486212
0.000486212
0.000486212
0.000486212
0.000486212
0.000486212
0.000486212
0.000486212
0.000486212
0.000486212
0.000486212
0.000486212
0.000849643
0.000849643
0.000849643
0.000849643
0.000849643
0.000849643
0.000849643
0.000849643
0.000849643
0.000849643
0.000849643
0.000849643
0.000849643
0.000849643
0.000849643
0.000849643
0.000849643
0.000849643
0.00125048
0.00125048
0.00125048
0.00125048
0.00125048
0.00125048
0.00125048
0.00125048
0.00125048
0.00125048
0.00125048
0.00125048
0.00125048
0.00125048
0.00125048
0.00125048
0.00125048
0.00125048
0.00169257
0.00169257
0.00169257
0.00169257
0.00169257
0.00169257
0.00169257
0.00169257
0.00169257
0.00169257
0.00169257
0.00169257
0.00169257
0.00169257
0.00169257
0.00169257
0.00169257
0.00169257
0.00218017
0.00218017
0.00218017
0.00218017
0.00218017
0.00218017
0.00218017
0.00218017
0.00218017
0.00218017
0.00218017
0.00218017
0.00218017
0.00218017
0.00218017
0.00218017
0.00218017
0.00218017
0.00271795
0.00271795
0.00271795
0.00271795
0.00271795
0.00271795
0.00271795
0.00271795
0.00271795
0.00271795
0.00271795
0.00271795
0.00271795
0.00271795
0.00271795
0.00271795
0.00271795
0.00271795
0.00322031
0.00322031
0.00322031
0.00322031
0.00322031
0.00322031
0.00322031
0.00322031
0.00322031
0.00322031
0.00322031
0.00322031
0.00322031
0.00322031
0.00322031
0.00322031
0.00322031
0.00322031
0.0036976
0.0036976
0.0036976
0.0036976
0.0036976
0.0036976
0.0036976
0.0036976
0.0036976
0.0036976
0.0036976
0.0036976
0.0036976
0.0036976
0.0036976
0.0036976
0.0036976
0.0036976
0.00425439
0.00425439
0.00425439
0.00425439
0.00425439
0.00425439
0.00425439
0.00425439
0.00425439
0.00425439
0.00425439
0.00425439
0.00425439
0.00425439
0.00425439
0.00425439
0.00425439
0.00425439
0.00490389
0.00490389
0.00490389
0.00490389
0.00490389
0.00490389
0.00490389
0.00490389
0.00490389
0.00490389
0.00490389
0.00490389
0.00490389
0.00490389
0.00490389
0.00490389
0.00490389
0.00490389
0.00566155
0.00566155
0.00566155
0.00566155
0.00566155
0.00566155
0.00566155
0.00566155
0.00566155
0.00566155
0.00566155
0.00566155
0.00566155
0.00566155
0.00566155
0.00566155
0.00566155
0.00566155
0.00654539
0.00654539
0.00654539
0.00654539
0.00654539
0.00654539
0.00654539
0.00654539
0.00654539
0.00654539
0.00654539
0.00654539
0.00654539
0.00654539
0.00654539
0.00654539
0.00654539
0.00654539
0.00757641
0.00757641
0.00757641
0.00757641
0.00757641
0.00757641
0.00757641
0.00757641
0.00757641
0.00757641
0.00757641
0.00757641
0.00757641
0.00757641
0.00757641
0.00757641
0.00757641
0.00757641
0.00877913
0.00877913
0.00877913
0.00877913
0.00877913
0.00877913
0.00877913
0.00877913
0.00877913
0.00877913
0.00877913
0.00877913
0.00877913
0.00877913
0.00877913
0.00877913
0.00877913
0.00877913
0.0101821
0.0101821
0.0101821
0.0101821
0.0101821
0.0101821
0.0101821
0.0101821
0.0101821
0.0101821
0.0101821
0.0101821
0.0101821
0.0101821
0.0101821
0.0101821
0.0101821
0.0101821
0.0118188
0.0118188
0.0118188
0.0118188
0.0118188
0.0118188
0.0118188
0.0118188
0.0118188
0.0118188
0.0118188
0.0118188
0.0118188
0.0118188
0.0118188
0.0118188
0.0118188
0.0118188
0.0118087
0.0118087
0.0118087
0.0118087
0.0118087
0.0118087
0.0118087
0.0118087
0.0118087
0.0118087
0.0118087
0.0118087
0.0118087
0.0118087
0.0118087
0.0118087
0.0118087
0.0118087
0.0101233
0.0101233
0.0101233
0.0101233
0.0101233
0.0101233
0.0101233
0.0101233
0.0101233
0.0101233
0.0101233
0.0101233
0.0101233
0.0101233
0.0101233
0.0101233
0.0101233
0.0101233
0.00862181
0.00862181
0.00862181
0.00862181
0.00862181
0.00862181
0.00862181
0.00862181
0.00862181
0.00862181
0.00862181
0.00862181
0.00862181
0.00862181
0.00862181
0.00862181
0.00862181
0.00862181
0.00728413
0.00728413
0.00728413
0.00728413
0.00728413
0.00728413
0.00728413
0.00728413
0.00728413
0.00728413
0.00728413
0.00728413
0.00728413
0.00728413
0.00728413
0.00728413
0.00728413
0.00728413
0.00609239
0.00609239
0.00609239
0.00609239
0.00609239
0.00609239
0.00609239
0.00609239
0.00609239
0.00609239
0.00609239
0.00609239
0.00609239
0.00609239
0.00609239
0.00609239
0.00609239
0.00609239
0.00503067
0.00503067
0.00503067
0.00503067
0.00503067
0.00503067
0.00503067
0.00503067
0.00503067
0.00503067
0.00503067
0.00503067
0.00503067
0.00503067
0.00503067
0.00503067
0.00503067
0.00503067
0.00408478
0.00408478
0.00408478
0.00408478
0.00408478
0.00408478
0.00408478
0.00408478
0.00408478
0.00408478
0.00408478
0.00408478
0.00408478
0.00408478
0.00408478
0.00408478
0.00408478
0.00408478
0.00324209
0.00324209
0.00324209
0.00324209
0.00324209
0.00324209
0.00324209
0.00324209
0.00324209
0.00324209
0.00324209
0.00324209
0.00324209
0.00324209
0.00324209
0.00324209
0.00324209
0.00324209
0.00249134
0.00249134
0.00249134
0.00249134
0.00249134
0.00249134
0.00249134
0.00249134
0.00249134
0.00249134
0.00249134
0.00249134
0.00249134
0.00249134
0.00249134
0.00249134
0.00249134
0.00249134
0.0018225
0.0018225
0.0018225
0.0018225
0.0018225
0.0018225
0.0018225
0.0018225
0.0018225
0.0018225
0.0018225
0.0018225
0.0018225
0.0018225
0.0018225
0.0018225
0.0018225
0.0018225
0.00122663
0.00122663
0.00122663
0.00122663
0.00122663
0.00122663
0.00122663
0.00122663
0.00122663
0.00122663
0.00122663
0.00122663
0.00122663
0.00122663
0.00122663
0.00122663
0.00122663
0.00122663
0.00069577
0.00069577
0.00069577
0.00069577
0.00069577
0.00069577
0.00069577
0.00069577
0.00069577
0.00069577
0.00069577
0.00069577
0.00069577
0.00069577
0.00069577
0.00069577
0.00069577
0.00069577
0.000222827
0.000222827
0.000222827
0.000222827
0.000222827
0.000222827
0.000222827
0.000222827
0.000222827
0.000222827
0.000222827
0.000222827
0.000222827
0.000222827
0.000222827
0.000222827
0.000222827
0.000222827
0.000264174
0.000566292
0.000566039
0.000565785
0.000565529
0.000565271
0.00056501
0.000564748
0.000564484
0.000564218
0.000563949
0.000563679
0.000563406
0.000563131
0.000562854
0.000562575
0.000562294
0.000562011
0.000561725
0.000561438
0.000561147
0.000560855
0.000560561
0.000560264
0.000559965
0.000559663
0.000559359
0.000559053
0.000558745
0.000558434
0.00055812
0.000557804
0.000557486
0.000557165
0.000556842
0.000556516
0.000556188
0.000555857
0.000555524
0.000555188
0.000554849
0.000554508
0.000554164
0.000553817
0.000553468
0.000553116
0.000552762
0.000552404
0.000552044
0.000551681
0.000551315
0.000550946
0.000550574
0.0005502
0.000549823
0.000549442
0.000549059
0.000548673
0.000548283
0.000547891
0.000547496
0.000547097
0.000546696
0.000546291
0.000545883
0.000545472
0.000545058
0.000544641
0.00054422
0.000543796
0.000543369
0.000542939
0.000542505
0.000542068
0.000541627
0.000541183
0.000540736
0.000540285
0.00053983
0.000539372
0.00053891
0.000538445
0.000537976
0.000537504
0.000537028
0.000536548
0.000536065
0.000535577
0.000535086
0.000534591
0.000534093
0.00053359
0.000533083
0.000532573
0.000532058
0.00053154
0.000531018
0.000530491
0.00052996
0.000529426
0.000528887
0.000528344
0.000527796
0.000527245
0.000526689
0.000526129
0.000525564
0.000524995
0.000524422
0.000523844
0.000523262
0.000522675
0.000522083
0.000521487
0.000520887
0.000520282
0.000519672
0.000519057
0.000518437
0.000517813
0.000517184
0.00051655
0.000515911
0.000515267
0.000514618
0.000513964
0.000513304
0.00051264
0.000511971
0.000511296
0.000510616
0.000509931
0.000509241
0.000508545
0.000507844
0.000507137
0.000506425
0.000505707
0.000504984
0.000504255
0.00050352
0.00050278
0.000502034
0.000501282
0.000500524
0.00049976
0.000498991
0.000498215
0.000497434
0.000496646
0.000495852
0.000495053
0.000494246
0.000493434
0.000492615
0.00049179
0.000490959
0.000490121
0.000489276
0.000488425
0.000487567
0.000486703
0.000485832
0.000484954
0.000484069
0.000483178
0.000482279
0.000481374
0.000480461
0.000479542
0.000478615
0.000477681
0.00047674
0.000475791
0.000474836
0.000473872
0.000472901
0.000471923
0.000470937
0.000469943
0.000264174
0.000794616
0.00132918
0.00169736
0.00169659
0.00169581
0.00169503
0.00169424
0.00169345
0.00169265
0.00169185
0.00169104
0.00169022
0.00168939
0.00168856
0.00168773
0.00168688
0.00168603
0.00168518
0.00168431
0.00168344
0.00168257
0.00168168
0.00168079
0.00167989
0.00167899
0.00167808
0.00167716
0.00167623
0.0016753
0.00167436
0.00167341
0.00167246
0.0016715
0.00167053
0.00166955
0.00166856
0.00166757
0.00166657
0.00166556
0.00166455
0.00166352
0.00166249
0.00166145
0.0016604
0.00165935
0.00165828
0.00165721
0.00165613
0.00165504
0.00165394
0.00165284
0.00165172
0.0016506
0.00164947
0.00164833
0.00164718
0.00164602
0.00164485
0.00164367
0.00164249
0.00164129
0.00164009
0.00163887
0.00163765
0.00163642
0.00163517
0.00163392
0.00163266
0.00163139
0.00163011
0.00162882
0.00162751
0.0016262
0.00162488
0.00162355
0.00162221
0.00162085
0.00161949
0.00161812
0.00161673
0.00161534
0.00161393
0.00161251
0.00161108
0.00160964
0.00160819
0.00160673
0.00160526
0.00160377
0.00160228
0.00160077
0.00159925
0.00159772
0.00159618
0.00159462
0.00159305
0.00159147
0.00158988
0.00158828
0.00158666
0.00158503
0.00158339
0.00158173
0.00158007
0.00157839
0.00157669
0.00157499
0.00157327
0.00157153
0.00156979
0.00156802
0.00156625
0.00156446
0.00156266
0.00156084
0.00155901
0.00155717
0.00155531
0.00155344
0.00155155
0.00154965
0.00154773
0.0015458
0.00154385
0.00154189
0.00153991
0.00153792
0.00153591
0.00153389
0.00153185
0.00152979
0.00152772
0.00152563
0.00152353
0.00152141
0.00151927
0.00151712
0.00151495
0.00151276
0.00151056
0.00150834
0.0015061
0.00150385
0.00150157
0.00149928
0.00149697
0.00149465
0.0014923
0.00148994
0.00148756
0.00148516
0.00148274
0.0014803
0.00147785
0.00147537
0.00147288
0.00147036
0.00146783
0.00146528
0.0014627
0.00146011
0.0014575
0.00145486
0.00145221
0.00144953
0.00144684
0.00144412
0.00144138
0.00143863
0.00143585
0.00143304
0.00143022
0.00142737
0.00142451
0.00142162
0.0014187
0.00141577
0.00141281
0.00140983
0.000264174
0.000794617
0.00132918
0.00186791
0.00241082
0.00282635
0.00282505
0.00282374
0.00282242
0.00282109
0.00281975
0.00281839
0.00281703
0.00281566
0.00281427
0.00281288
0.00281147
0.00281005
0.00280863
0.00280719
0.00280574
0.00280428
0.0028028
0.00280132
0.00279982
0.00279832
0.0027968
0.00279527
0.00279372
0.00279217
0.0027906
0.00278902
0.00278743
0.00278583
0.00278421
0.00278258
0.00278094
0.00277929
0.00277762
0.00277594
0.00277425
0.00277254
0.00277082
0.00276909
0.00276734
0.00276558
0.00276381
0.00276202
0.00276022
0.0027584
0.00275657
0.00275473
0.00275287
0.002751
0.00274911
0.00274721
0.00274529
0.00274336
0.00274142
0.00273946
0.00273748
0.00273549
0.00273348
0.00273146
0.00272942
0.00272736
0.00272529
0.0027232
0.0027211
0.00271898
0.00271685
0.00271469
0.00271252
0.00271034
0.00270814
0.00270592
0.00270368
0.00270142
0.00269915
0.00269686
0.00269455
0.00269223
0.00268988
0.00268752
0.00268514
0.00268274
0.00268032
0.00267789
0.00267543
0.00267296
0.00267046
0.00266795
0.00266542
0.00266286
0.00266029
0.0026577
0.00265509
0.00265246
0.0026498
0.00264713
0.00264443
0.00264172
0.00263898
0.00263622
0.00263344
0.00263064
0.00262782
0.00262498
0.00262211
0.00261922
0.00261631
0.00261337
0.00261042
0.00260744
0.00260443
0.00260141
0.00259836
0.00259528
0.00259219
0.00258906
0.00258592
0.00258275
0.00257955
0.00257633
0.00257309
0.00256982
0.00256652
0.0025632
0.00255985
0.00255648
0.00255308
0.00254966
0.0025462
0.00254272
0.00253922
0.00253568
0.00253212
0.00252853
0.00252492
0.00252127
0.0025176
0.0025139
0.00251017
0.00250641
0.00250262
0.0024988
0.00249495
0.00249108
0.00248717
0.00248323
0.00247926
0.00247526
0.00247123
0.00246717
0.00246308
0.00245895
0.00245479
0.0024506
0.00244638
0.00244213
0.00243784
0.00243352
0.00242916
0.00242477
0.00242035
0.00241589
0.0024114
0.00240687
0.00240231
0.00239771
0.00239308
0.00238841
0.0023837
0.00237896
0.00237418
0.00236936
0.00236451
0.00235961
0.00235469
0.00234972
0.000264174
0.00079462
0.00132919
0.00186791
0.00241082
0.00295796
0.00350934
0.00395324
0.00395139
0.00394952
0.00394764
0.00394575
0.00394384
0.00394192
0.00393998
0.00393803
0.00393606
0.00393408
0.00393208
0.00393006
0.00392803
0.00392599
0.00392392
0.00392185
0.00391975
0.00391764
0.00391552
0.00391337
0.00391121
0.00390904
0.00390684
0.00390463
0.0039024
0.00390016
0.0038979
0.00389561
0.00389332
0.003891
0.00388867
0.00388631
0.00388394
0.00388156
0.00387915
0.00387672
0.00387428
0.00387181
0.00386933
0.00386683
0.00386431
0.00386176
0.0038592
0.00385662
0.00385402
0.0038514
0.00384876
0.0038461
0.00384341
0.00384071
0.00383798
0.00383524
0.00383247
0.00382968
0.00382687
0.00382404
0.00382118
0.00381831
0.00381541
0.00381249
0.00380954
0.00380658
0.00380358
0.00380057
0.00379753
0.00379447
0.00379139
0.00378828
0.00378515
0.00378199
0.00377881
0.0037756
0.00377237
0.00376912
0.00376584
0.00376253
0.0037592
0.00375584
0.00375245
0.00374904
0.0037456
0.00374214
0.00373865
0.00373513
0.00373158
0.00372801
0.00372441
0.00372078
0.00371712
0.00371344
0.00370972
0.00370598
0.00370221
0.00369841
0.00369457
0.00369071
0.00368682
0.0036829
0.00367895
0.00367497
0.00367095
0.00366691
0.00366283
0.00365872
0.00365458
0.00365041
0.00364621
0.00364197
0.0036377
0.0036334
0.00362906
0.00362469
0.00362029
0.00361585
0.00361137
0.00360687
0.00360232
0.00359775
0.00359313
0.00358848
0.0035838
0.00357907
0.00357431
0.00356952
0.00356468
0.00355981
0.00355491
0.00354996
0.00354497
0.00353995
0.00353489
0.00352978
0.00352464
0.00351946
0.00351424
0.00350897
0.00350367
0.00349832
0.00349294
0.00348751
0.00348204
0.00347652
0.00347097
0.00346537
0.00345972
0.00345404
0.00344831
0.00344253
0.00343671
0.00343084
0.00342493
0.00341898
0.00341297
0.00340692
0.00340082
0.00339468
0.00338849
0.00338225
0.00337596
0.00336962
0.00336323
0.00335679
0.00335031
0.00334377
0.00333718
0.00333054
0.00332385
0.00331711
0.00331031
0.00330346
0.00329656
0.0032896
0.000264174
0.000794622
0.00132919
0.00186792
0.00241083
0.00295797
0.00350936
0.00406503
0.00462503
0.00507796
0.00507554
0.00507311
0.00507065
0.00506818
0.00506569
0.00506318
0.00506065
0.0050581
0.00505553
0.00505294
0.00505033
0.0050477
0.00504505
0.00504237
0.00503968
0.00503697
0.00503423
0.00503148
0.0050287
0.0050259
0.00502308
0.00502024
0.00501738
0.00501449
0.00501158
0.00500865
0.00500569
0.00500272
0.00499971
0.00499669
0.00499364
0.00499057
0.00498748
0.00498436
0.00498121
0.00497805
0.00497485
0.00497164
0.00496839
0.00496513
0.00496183
0.00495851
0.00495517
0.0049518
0.0049484
0.00494498
0.00494153
0.00493805
0.00493455
0.00493102
0.00492746
0.00492388
0.00492026
0.00491662
0.00491295
0.00490925
0.00490552
0.00490177
0.00489798
0.00489417
0.00489032
0.00488645
0.00488254
0.00487861
0.00487464
0.00487065
0.00486662
0.00486256
0.00485847
0.00485435
0.00485019
0.00484601
0.00484179
0.00483754
0.00483325
0.00482893
0.00482458
0.0048202
0.00481578
0.00481132
0.00480683
0.00480231
0.00479775
0.00479316
0.00478853
0.00478386
0.00477916
0.00477442
0.00476964
0.00476483
0.00475998
0.00475509
0.00475017
0.0047452
0.0047402
0.00473516
0.00473008
0.00472496
0.0047198
0.0047146
0.00470936
0.00470407
0.00469875
0.00469339
0.00468798
0.00468253
0.00467704
0.00467151
0.00466594
0.00466032
0.00465465
0.00464895
0.0046432
0.0046374
0.00463156
0.00462567
0.00461974
0.00461376
0.00460774
0.00460167
0.00459555
0.00458938
0.00458317
0.0045769
0.00457059
0.00456423
0.00455782
0.00455136
0.00454485
0.00453829
0.00453168
0.00452502
0.0045183
0.00451154
0.00450472
0.00449784
0.00449092
0.00448394
0.0044769
0.00446982
0.00446267
0.00445547
0.00444822
0.00444091
0.00443354
0.00442611
0.00441863
0.00441109
0.00440348
0.00439583
0.00438811
0.00438033
0.00437249
0.00436459
0.00435662
0.0043486
0.00434051
0.00433237
0.00432415
0.00431588
0.00430754
0.00429913
0.00429066
0.00428212
0.00427352
0.00426485
0.00425611
0.00424731
0.00423843
0.00422949
0.000264174
0.000794626
0.0013292
0.00186793
0.00241084
0.00295798
0.00350937
0.00406505
0.00462505
0.0051894
0.00575814
0.00620046
0.00619747
0.00619444
0.0061914
0.00618833
0.00618524
0.00618212
0.00617898
0.00617581
0.00617262
0.00616941
0.00616617
0.0061629
0.00615961
0.00615629
0.00615295
0.00614958
0.00614619
0.00614277
0.00613932
0.00613585
0.00613235
0.00612882
0.00612526
0.00612168
0.00611807
0.00611443
0.00611076
0.00610707
0.00610334
0.00609959
0.0060958
0.00609199
0.00608815
0.00608428
0.00608038
0.00607644
0.00607248
0.00606849
0.00606446
0.00606041
0.00605632
0.0060522
0.00604805
0.00604387
0.00603965
0.0060354
0.00603112
0.0060268
0.00602245
0.00601807
0.00601365
0.0060092
0.00600472
0.0060002
0.00599564
0.00599105
0.00598642
0.00598176
0.00597706
0.00597233
0.00596755
0.00596274
0.0059579
0.00595301
0.00594809
0.00594313
0.00593813
0.00593309
0.00592801
0.0059229
0.00591774
0.00591254
0.00590731
0.00590203
0.00589671
0.00589135
0.00588595
0.0058805
0.00587502
0.00586949
0.00586392
0.0058583
0.00585264
0.00584694
0.00584119
0.0058354
0.00582956
0.00582368
0.00581775
0.00581178
0.00580576
0.00579969
0.00579358
0.00578742
0.00578121
0.00577495
0.00576864
0.00576228
0.00575588
0.00574942
0.00574292
0.00573636
0.00572976
0.0057231
0.00571639
0.00570962
0.00570281
0.00569594
0.00568902
0.00568205
0.00567502
0.00566793
0.00566079
0.0056536
0.00564635
0.00563904
0.00563168
0.00562426
0.00561678
0.00560924
0.00560165
0.00559399
0.00558628
0.00557851
0.00557067
0.00556278
0.00555482
0.0055468
0.00553872
0.00553058
0.00552237
0.0055141
0.00550577
0.00549737
0.0054889
0.00548037
0.00547177
0.00546311
0.00545438
0.00544558
0.00543671
0.00542777
0.00541877
0.00540969
0.00540054
0.00539133
0.00538204
0.00537268
0.00536324
0.00535373
0.00534415
0.0053345
0.00532476
0.00531496
0.00530507
0.00529511
0.00528508
0.00527496
0.00526477
0.00525449
0.00524414
0.00523371
0.00522319
0.00521259
0.00520192
0.00519115
0.00518031
0.00516938
0.000264174
0.00079463
0.00132921
0.00186794
0.00241086
0.002958
0.00350939
0.00406507
0.00462508
0.00518943
0.00575817
0.00633134
0.00690896
0.00732071
0.00731711
0.00731348
0.00730983
0.00730614
0.00730243
0.00729869
0.00729492
0.00729112
0.00728729
0.00728343
0.00727954
0.00727562
0.00727167
0.00726769
0.00726368
0.00725964
0.00725556
0.00725146
0.00724732
0.00724315
0.00723895
0.00723471
0.00723045
0.00722614
0.00722181
0.00721744
0.00721304
0.0072086
0.00720413
0.00719963
0.00719509
0.00719051
0.0071859
0.00718125
0.00717657
0.00717185
0.00716709
0.0071623
0.00715747
0.0071526
0.00714769
0.00714275
0.00713777
0.00713275
0.00712768
0.00712258
0.00711745
0.00711227
0.00710705
0.00710179
0.00709648
0.00709114
0.00708576
0.00708033
0.00707486
0.00706935
0.0070638
0.0070582
0.00705256
0.00704688
0.00704115
0.00703538
0.00702956
0.0070237
0.00701779
0.00701184
0.00700584
0.00699979
0.00699369
0.00698755
0.00698136
0.00697513
0.00696884
0.0069625
0.00695612
0.00694969
0.0069432
0.00693667
0.00693008
0.00692345
0.00691676
0.00691002
0.00690323
0.00689638
0.00688949
0.00688253
0.00687553
0.00686847
0.00686135
0.00685418
0.00684696
0.00683967
0.00683233
0.00682494
0.00681748
0.00680997
0.0068024
0.00679477
0.00678709
0.00677934
0.00677153
0.00676366
0.00675573
0.00674774
0.00673968
0.00673157
0.00672339
0.00671515
0.00670684
0.00669847
0.00669003
0.00668153
0.00667296
0.00666432
0.00665562
0.00664685
0.00663801
0.00662911
0.00662013
0.00661108
0.00660197
0.00659278
0.00658352
0.00657419
0.00656479
0.00655531
0.00654576
0.00653614
0.00652644
0.00651666
0.00650681
0.00649689
0.00648688
0.0064768
0.00646664
0.0064564
0.00644608
0.00643568
0.0064252
0.00641464
0.006404
0.00639327
0.00638246
0.00637157
0.00636059
0.00634953
0.00633838
0.00632714
0.00631582
0.0063044
0.0062929
0.00628131
0.00626963
0.00625786
0.006246
0.00623404
0.006222
0.00620986
0.00619762
0.00618529
0.00617286
0.00616034
0.00614772
0.006135
0.00612218
0.00610926
0.000264174
0.000794635
0.00132921
0.00186795
0.00241087
0.00295802
0.00350941
0.0040651
0.0046251
0.00518946
0.00575821
0.00633138
0.006909
0.00749112
0.00807776
0.00843863
0.00843441
0.00843016
0.00842588
0.00842156
0.00841721
0.00841283
0.00840841
0.00840396
0.00839947
0.00839495
0.00839039
0.0083858
0.00838117
0.0083765
0.0083718
0.00836707
0.00836229
0.00835748
0.00835263
0.00834775
0.00834282
0.00833786
0.00833286
0.00832782
0.00832274
0.00831762
0.00831246
0.00830726
0.00830202
0.00829674
0.00829142
0.00828606
0.00828066
0.00827521
0.00826972
0.00826419
0.00825862
0.008253
0.00824734
0.00824163
0.00823588
0.00823009
0.00822425
0.00821837
0.00821244
0.00820646
0.00820044
0.00819437
0.00818825
0.00818209
0.00817587
0.00816961
0.00816331
0.00815695
0.00815054
0.00814408
0.00813757
0.00813102
0.00812441
0.00811775
0.00811103
0.00810427
0.00809745
0.00809058
0.00808366
0.00807668
0.00806965
0.00806256
0.00805542
0.00804822
0.00804097
0.00803366
0.00802629
0.00801887
0.00801139
0.00800385
0.00799625
0.00798859
0.00798088
0.0079731
0.00796526
0.00795737
0.00794941
0.00794138
0.0079333
0.00792515
0.00791694
0.00790867
0.00790033
0.00789193
0.00788346
0.00787493
0.00786633
0.00785766
0.00784893
0.00784012
0.00783125
0.00782231
0.0078133
0.00780422
0.00779507
0.00778585
0.00777656
0.00776719
0.00775776
0.00774824
0.00773866
0.007729
0.00771926
0.00770945
0.00769957
0.0076896
0.00767956
0.00766944
0.00765925
0.00764897
0.00763861
0.00762817
0.00761765
0.00760705
0.00759637
0.0075856
0.00757475
0.00756382
0.0075528
0.0075417
0.00753051
0.00751923
0.00750786
0.00749641
0.00748486
0.00747323
0.00746151
0.00744969
0.00743779
0.00742579
0.0074137
0.00740151
0.00738923
0.00737685
0.00736438
0.00735181
0.00733914
0.00732638
0.00731351
0.00730055
0.00728748
0.00727431
0.00726104
0.00724767
0.00723419
0.00722061
0.00720692
0.00719313
0.00717923
0.00716522
0.0071511
0.00713687
0.00712253
0.00710808
0.00709352
0.00707884
0.00706406
0.00704915
0.000264174
0.000794641
0.00132922
0.00186796
0.00241089
0.00295804
0.00350944
0.00406513
0.00462514
0.0051895
0.00575825
0.00633142
0.00690905
0.00749117
0.00807782
0.00866903
0.00926483
0.00955418
0.00954933
0.00954444
0.00953951
0.00953454
0.00952953
0.00952448
0.0095194
0.00951427
0.00950911
0.0095039
0.00949866
0.00949337
0.00948804
0.00948268
0.00947726
0.00947181
0.00946632
0.00946078
0.0094552
0.00944957
0.00944391
0.00943819
0.00943244
0.00942664
0.00942079
0.0094149
0.00940896
0.00940298
0.00939695
0.00939087
0.00938474
0.00937857
0.00937235
0.00936608
0.00935977
0.0093534
0.00934698
0.00934052
0.009334
0.00932744
0.00932082
0.00931415
0.00930743
0.00930066
0.00929383
0.00928695
0.00928002
0.00927303
0.00926599
0.0092589
0.00925175
0.00924454
0.00923728
0.00922996
0.00922258
0.00921515
0.00920766
0.00920011
0.0091925
0.00918484
0.00917711
0.00916932
0.00916148
0.00915357
0.0091456
0.00913757
0.00912948
0.00912132
0.0091131
0.00910481
0.00909647
0.00908805
0.00907957
0.00907103
0.00906242
0.00905374
0.00904499
0.00903618
0.0090273
0.00901835
0.00900933
0.00900024
0.00899107
0.00898184
0.00897254
0.00896316
0.00895371
0.00894419
0.00893459
0.00892492
0.00891517
0.00890535
0.00889545
0.00888547
0.00887542
0.00886529
0.00885508
0.00884479
0.00883442
0.00882397
0.00881343
0.00880282
0.00879212
0.00878134
0.00877048
0.00875953
0.0087485
0.00873738
0.00872618
0.00871488
0.0087035
0.00869204
0.00868048
0.00866883
0.00865709
0.00864526
0.00863334
0.00862133
0.00860922
0.00859702
0.00858472
0.00857233
0.00855984
0.00854726
0.00853457
0.00852179
0.00850891
0.00849593
0.00848285
0.00846966
0.00845638
0.00844299
0.00842949
0.00841589
0.00840219
0.00838838
0.00837446
0.00836043
0.0083463
0.00833205
0.00831769
0.00830323
0.00828864
0.00827395
0.00825914
0.00824422
0.00822918
0.00821402
0.00819875
0.00818336
0.00816784
0.00815221
0.00813646
0.00812058
0.00810458
0.00808845
0.0080722
0.00805583
0.00803932
0.00802269
0.00800593
0.00798904
0.000264174
0.000794647
0.00132923
0.00186798
0.00241091
0.00295806
0.00350947
0.00406516
0.00462517
0.00518954
0.0057583
0.00633148
0.00690911
0.00749123
0.00807788
0.0086691
0.0092649
0.00986534
0.0104705
0.0106673
0.0106618
0.0106562
0.0106507
0.010645
0.0106393
0.0106336
0.0106278
0.010622
0.0106161
0.0106102
0.0106043
0.0105983
0.0105922
0.0105861
0.01058
0.0105738
0.0105676
0.0105613
0.010555
0.0105486
0.0105421
0.0105357
0.0105291
0.0105225
0.0105159
0.0105092
0.0105025
0.0104957
0.0104888
0.0104819
0.010475
0.010468
0.0104609
0.0104538
0.0104466
0.0104394
0.0104321
0.0104248
0.0104174
0.0104099
0.0104024
0.0103949
0.0103872
0.0103795
0.0103718
0.010364
0.0103561
0.0103482
0.0103402
0.0103321
0.010324
0.0103158
0.0103076
0.0102993
0.0102909
0.0102825
0.010274
0.0102654
0.0102568
0.0102481
0.0102393
0.0102305
0.0102216
0.0102126
0.0102035
0.0101944
0.0101852
0.010176
0.0101666
0.0101572
0.0101478
0.0101382
0.0101286
0.0101189
0.0101091
0.0100993
0.0100893
0.0100793
0.0100692
0.0100591
0.0100488
0.0100385
0.0100281
0.0100176
0.0100071
0.00999644
0.00998572
0.00997491
0.00996401
0.00995304
0.00994197
0.00993082
0.00991959
0.00990826
0.00989685
0.00988535
0.00987376
0.00986208
0.00985031
0.00983845
0.00982649
0.00981444
0.0098023
0.00979007
0.00977774
0.00976531
0.00975279
0.00974016
0.00972745
0.00971463
0.00970171
0.00968869
0.00967557
0.00966235
0.00964903
0.0096356
0.00962207
0.00960843
0.00959469
0.00958084
0.00956688
0.00955282
0.00953864
0.00952435
0.00950996
0.00949545
0.00948083
0.00946609
0.00945124
0.00943628
0.0094212
0.009406
0.00939068
0.00937524
0.00935969
0.00934401
0.00932821
0.00931229
0.00929625
0.00928008
0.00926378
0.00924736
0.00923081
0.00921413
0.00919732
0.00918038
0.00916331
0.00914611
0.00912877
0.0091113
0.00909369
0.00907594
0.00905806
0.00904004
0.00902187
0.00900357
0.00898513
0.00896654
0.0089478
0.00892892
0.000264174
0.000794654
0.00132925
0.00186799
0.00241093
0.00295809
0.0035095
0.0040652
0.00462522
0.00518959
0.00575835
0.00633153
0.00690917
0.0074913
0.00807796
0.00866917
0.00926499
0.00986543
0.0104705
0.0110804
0.0116949
0.011778
0.0117718
0.0117655
0.0117593
0.0117529
0.0117465
0.0117401
0.0117336
0.0117271
0.0117205
0.0117139
0.0117072
0.0117005
0.0116937
0.0116868
0.01168
0.011673
0.011666
0.0116589
0.0116518
0.0116447
0.0116374
0.0116302
0.0116228
0.0116154
0.011608
0.0116005
0.0115929
0.0115853
0.0115776
0.0115699
0.0115621
0.0115542
0.0115463
0.0115383
0.0115302
0.0115221
0.011514
0.0115057
0.0114974
0.011489
0.0114806
0.0114721
0.0114636
0.0114549
0.0114462
0.0114375
0.0114286
0.0114197
0.0114108
0.0114017
0.0113926
0.0113834
0.0113742
0.0113648
0.0113554
0.011346
0.0113364
0.0113268
0.0113171
0.0113074
0.0112975
0.0112876
0.0112776
0.0112675
0.0112574
0.0112471
0.0112368
0.0112264
0.0112159
0.0112054
0.0111948
0.011184
0.0111732
0.0111623
0.0111514
0.0111403
0.0111292
0.0111179
0.0111066
0.0110952
0.0110837
0.0110721
0.0110605
0.0110487
0.0110368
0.0110249
0.0110129
0.0110007
0.0109885
0.0109762
0.0109638
0.0109512
0.0109386
0.0109259
0.0109131
0.0109002
0.0108872
0.0108741
0.0108609
0.0108475
0.0108341
0.0108206
0.010807
0.0107932
0.0107794
0.0107654
0.0107514
0.0107372
0.0107229
0.0107086
0.0106941
0.0106794
0.0106647
0.0106499
0.0106349
0.0106198
0.0106047
0.0105893
0.0105739
0.0105584
0.0105427
0.0105269
0.010511
0.010495
0.0104788
0.0104625
0.0104461
0.0104296
0.0104129
0.0103961
0.0103792
0.0103621
0.0103449
0.0103276
0.0103101
0.0102925
0.0102748
0.0102569
0.0102389
0.0102208
0.0102025
0.010184
0.0101655
0.0101467
0.0101279
0.0101089
0.0100897
0.0100704
0.0100509
0.0100313
0.0100115
0.00999162
0.00997155
0.00995132
0.00993093
0.00991038
0.00988968
0.00986881
0.000264174
0.000794662
0.00132926
0.00186801
0.00241095
0.00295812
0.00350953
0.00406524
0.00462526
0.00518964
0.00575841
0.00633159
0.00690924
0.00749137
0.00807804
0.00866926
0.00926508
0.00986553
0.0104706
0.0110805
0.011695
0.0123144
0.0128929
0.0128861
0.0128792
0.0128723
0.0128653
0.0128582
0.0128511
0.012844
0.0128368
0.0128295
0.0128222
0.0128148
0.0128074
0.0127999
0.0127923
0.0127847
0.012777
0.0127693
0.0127615
0.0127537
0.0127458
0.0127378
0.0127298
0.0127217
0.0127135
0.0127053
0.012697
0.0126887
0.0126802
0.0126718
0.0126632
0.0126546
0.0126459
0.0126372
0.0126284
0.0126195
0.0126105
0.0126015
0.0125924
0.0125832
0.012574
0.0125647
0.0125553
0.0125459
0.0125363
0.0125267
0.0125171
0.0125073
0.0124975
0.0124876
0.0124776
0.0124676
0.0124574
0.0124472
0.0124369
0.0124265
0.0124161
0.0124056
0.0123949
0.0123842
0.0123735
0.0123626
0.0123516
0.0123406
0.0123295
0.0123183
0.012307
0.0122956
0.0122841
0.0122726
0.0122609
0.0122492
0.0122373
0.0122254
0.0122134
0.0122013
0.0121891
0.0121768
0.0121644
0.0121519
0.0121393
0.0121266
0.0121138
0.012101
0.012088
0.0120749
0.0120617
0.0120484
0.012035
0.0120215
0.0120079
0.0119942
0.0119804
0.0119665
0.0119524
0.0119383
0.0119241
0.0119097
0.0118952
0.0118806
0.0118659
0.0118511
0.0118362
0.0118212
0.011806
0.0117907
0.0117753
0.0117598
0.0117442
0.0117284
0.0117125
0.0116965
0.0116804
0.0116641
0.0116478
0.0116313
0.0116146
0.0115979
0.011581
0.0115639
0.0115468
0.0115295
0.0115121
0.0114945
0.0114768
0.011459
0.011441
0.0114229
0.0114046
0.0113862
0.0113677
0.011349
0.0113301
0.0113112
0.011292
0.0112728
0.0112534
0.0112338
0.011214
0.0111942
0.0111741
0.0111539
0.0111336
0.0111131
0.0110924
0.0110716
0.0110506
0.0110295