/*--------------------------------*- C++ -*----------------------------------*\
| =========                 |                                                 |
| \\      /  F ield         | foam-extend: Open Source CFD                    |
|  \\    /   O peration     | Version:     3.2                                |
|   \\  /    A nd           | Web:         http://www.foam-extend.org         |
|    \\/     M anipulation  |                                                 |
\*---------------------------------------------------------------------------*/
FoamFile
{
    version     2.0;
    format      ascii;
    class       volScalarField;
    location    "0";
    object      yPlus;
}
// * * * * * * * * * * * * * * * * * * * * * * * * * * * * * * * * * * * * * //

dimensions      [0 0 0 0 0 0 0];

internalField   uniform 0;

boundaryField
{
    inlet
    {
        type            calculated;
        value           uniform 0;
    }
    outlet
    {
        type            calculated;
        value           uniform 0;
    }
    upperWall
    {
        type            calculated;
        value           nonuniform List<scalar>
223
(
7.47386
7.47386
7.47386
7.47386
7.47386
7.47386
7.47386
7.47386
7.47386
7.47386
7.47386
7.47386
7.47386
7.47386
7.47386
7.47386
7.47386
7.47386
7.47062
7.4641
7.45753
7.45092
7.44425
7.43752
7.43075
7.42393
7.41705
7.41011
7.40313
7.39609
7.38899
7.38184
7.37464
7.36737
7.36005
7.35268
7.34525
7.33776
7.33021
7.3226
7.31493
7.30721
7.29942
7.29157
7.28366
7.27569
7.26766
7.25957
7.25141
7.24319
7.23491
7.22656
7.21815
7.20967
7.20112
7.19251
7.18383
7.17509
7.16627
7.15739
7.14844
7.13942
7.13033
7.12117
7.11193
7.10263
7.09325
7.0838
7.07428
7.06468
7.05501
7.04526
7.03544
7.02554
7.01556
7.00551
6.99538
6.98517
6.97488
6.96451
6.95406
6.94352
6.93291
6.92221
6.91143
6.90057
6.88962
6.87859
6.86747
6.85627
6.84497
6.83359
6.82213
6.81057
6.79892
6.78718
6.77535
6.76343
6.75142
6.73931
6.72711
6.71481
6.70242
6.68993
6.67734
6.66466
6.65188
6.639
6.62602
6.61293
6.59975
6.58646
6.57307
6.55958
6.54598
6.53227
6.51846
6.50454
6.49052
6.47638
6.46214
6.44778
6.43331
6.41873
6.40404
6.38923
6.3743
6.35927
6.34411
6.32883
6.31344
6.29793
6.2823
6.26654
6.25066
6.23466
6.21854
6.20229
6.18591
6.16941
6.15277
6.13601
6.11912
6.1021
6.08494
6.06765
6.05023
6.03267
6.01497
5.99714
5.97917
5.96106
5.9428
5.92441
5.90587
5.88719
5.86836
5.84939
5.83027
5.811
5.79158
5.77201
5.75229
5.73242
5.71239
5.6922
5.67186
5.65136
5.6307
5.60988
5.58889
5.56775
5.54644
5.52496
5.50332
5.48151
5.45953
5.43738
5.41505
5.39255
5.36988
5.34703
5.32401
5.3008
5.27742
5.25385
5.2301
5.20616
5.18204
5.15773
5.13324
5.10855
5.08367
5.05859
5.03332
5.00786
4.9822
4.95633
4.8965
4.85579
4.81351
4.76958
4.72393
4.67652
4.62725
4.57607
4.5229
4.46766
4.41027
4.35065
4.2887
4.22435
4.15749
4.08803
4.01587
3.9409
3.86302
3.7821
3.69804
3.6107
3.51997
3.42571
3.32778
)
;
    }
    lowerWall
    {
        type            calculated;
        value           nonuniform List<scalar>
250
(
5.2557
5.2557
5.2557
5.2557
5.2557
5.2557
5.2557
5.2557
5.2557
5.2557
5.2557
5.2557
5.2557
5.2557
5.2557
5.2557
5.2557
5.2557
8.86245
8.86281
8.86321
8.86364
8.86411
8.86463
8.86519
8.8658
8.86647
8.86067
8.86067
8.86067
8.86067
8.86067
8.86067
8.86067
8.86067
8.86067
8.86067
8.86067
8.86067
8.86067
8.86067
8.86067
8.86067
8.86067
8.86067
8.86067
18.994
18.9855
18.977
18.9684
18.9598
18.951
18.9422
18.9334
18.9244
18.9154
18.9064
18.8972
18.888
18.8787
18.8694
18.8599
18.8504
18.8408
18.8312
18.8215
18.8117
18.8018
18.7918
18.7818
18.7717
18.7615
18.7512
18.7409
18.7304
18.7199
18.7093
18.6987
18.6879
18.6771
18.6661
18.6551
18.644
18.6328
18.6216
18.6102
18.5988
18.5872
18.5756
18.5639
18.5521
18.5402
18.5282
18.5161
18.5039
18.4917
18.4793
18.4668
18.4543
18.4416
18.4289
18.416
18.403
18.39
18.3768
18.3636
18.3502
18.3367
18.3232
18.3095
18.2957
18.2818
18.2678
18.2537
18.2395
18.2252
18.2107
18.1962
18.1815
18.1667
18.1518
18.1368
18.1217
18.1064
18.0911
18.0756
18.06
18.0443
18.0284
18.0125
17.9964
17.9802
17.9638
17.9473
17.9307
17.914
17.8972
17.8802
17.863
17.8458
17.8284
17.8109
17.7932
17.7754
17.7575
17.7394
17.7212
17.7028
17.6843
17.6657
17.6469
17.628
17.6089
17.5896
17.5703
17.5507
17.531
17.5112
17.4912
17.4711
17.4508
17.4303
17.4097
17.3889
17.368
17.3469
17.3256
17.3042
17.2826
17.2608
17.2389
17.2168
17.1945
17.172
17.1494
17.1266
17.1036
17.0805
17.0571
17.0336
17.0099
16.986
16.9619
16.9377
16.9132
16.8886
16.8637
16.8387
16.8135
16.7881
16.7625
16.7367
16.7107
16.6844
16.658
16.6314
16.6046
16.5775
16.5503
16.5228
16.4951
16.4673
16.4391
16.4108
16.3823
16.3535
16.3245
16.2953
16.2659
16.2362
16.2063
16.1761
16.1458
16.1152
16.0843
16.0532
16.0219
15.9903
15.9585
15.9265
15.8942
15.8616
15.8288
15.7957
15.7624
15.5856
15.4337
15.2759
15.1119
14.9416
14.7646
14.5808
14.3898
14.1914
13.9852
13.7711
13.5486
13.3174
13.0773
12.8278
12.5686
12.2993
12.0196
11.7289
11.427
11.1133
10.7874
10.4488
10.0971
9.73167
)
;
    }
    frontAndBack
    {
        type            empty;
    }
}

// ************************************************************************* //
