/*--------------------------------*- C++ -*----------------------------------*\
| =========                 |                                                 |
| \\      /  F ield         | foam-extend: Open Source CFD                    |
|  \\    /   O peration     | Version:     4.1                                |
|   \\  /    A nd           | Web:         http://www.foam-extend.org         |
|    \\/     M anipulation  |                                                 |
\*---------------------------------------------------------------------------*/
FoamFile
{
    version     2.0;
    format      ascii;
    class       volScalarField;
    location    "0";
    object      epsilon;
}
// * * * * * * * * * * * * * * * * * * * * * * * * * * * * * * * * * * * * * //

dimensions      [0 2 -3 0 0 0 0];

internalField   uniform 0.079598;

boundaryField
{
    inlet
    {
        type            fixedValue;
        value           $internalField;
    }
    outlet
    {
        type            zeroGradient;
    }
    upperWall
    {
        type            epsilonWallFunction;
        refValue        uniform 0;
        value           $internalField;
        Cmu             0.09;
        kappa           0.41;
        E               9.8;
    }
    lowerWall
    {
        type            epsilonWallFunction;
        refValue        uniform 0;
        value           $internalField;
        Cmu             0.09;
        kappa           0.41;
        E               9.8;
    }
    frontAndBack
    {
        type            empty;
    }
    symmetry
    {
        type            symmetryPlane;
    }
}

// ************************************************************************* //
